<?xml version="1.0" encoding="UTF-8"?>

<!-- generated on 2025-05-23 11:27:39 by Eclipse SUMO sumo Version 1.21.0
<sumoConfiguration xmlns:xsi="http://www.w3.org/2001/XMLSchema-instance" xsi:noNamespaceSchemaLocation="http://sumo.dlr.de/xsd/sumoConfiguration.xsd">

    <input>
        <net-file value="chatt.net.xml"/>
        <route-files value="chatt.rou.xml"/>
        <additional-files value="Edge.add.xml"/>
    </input>

    <time>
        <begin value="28800"/>
        <end value="32400"/>
        <step-length value="1"/>
    </time>

    <report>
        <no-warnings value="true"/>
        <no-step-log value="true"/>
    </report>

    <traci_server>
        <remote-port value="61576"/>
    </traci_server>

    <random_number>
        <seed value="812"/>
    </random_number>

    <gui_only>
        <start value="t"/>
    </gui_only>

</sumoConfiguration>
-->

<meandata xmlns:xsi="http://www.w3.org/2001/XMLSchema-instance" xsi:noNamespaceSchemaLocation="http://sumo.dlr.de/xsd/meandata_file.xsd">
    <interval begin="28800.00" end="32400.00" id="1">
        <edge id="-280" sampledSeconds="11145.78" traveltime="13.59" overlapTraveltime="14.36" density="111.33" laneDensity="37.11" occupancy="17.38" waitingTime="7398.00" timeLoss="9467.56" speed="2.28" speedRelative="0.15" departed="0" arrived="0" entered="777" left="776" laneChangedFrom="24" laneChangedTo="24"/>
        <edge id="-2801" sampledSeconds="24138.77" traveltime="30.71" overlapTraveltime="31.35" density="19.05" laneDensity="9.53" occupancy="4.71" waitingTime="1450.74" timeLoss="6489.77" speed="11.38" speedRelative="0.72" departed="784" arrived="0" entered="0" left="777" laneChangedFrom="256" laneChangedTo="256"/>
        <edge id="-281" sampledSeconds="1391.60" traveltime="2.01" overlapTraveltime="2.37" density="14.94" laneDensity="4.98" occupancy="2.07" waitingTime="0.00" timeLoss="222.01" speed="13.04" speedRelative="0.83" departed="0" arrived="0" entered="589" left="588" laneChangedFrom="62" laneChangedTo="62"/>
        <edge id="-282" sampledSeconds="65.85" traveltime="0.90" overlapTraveltime="1.39" density="2.20" laneDensity="2.20" occupancy="0.71" waitingTime="0.00" timeLoss="38.27" speed="9.61" speedRelative="0.41" departed="0" arrived="52" entered="52" left="0" laneChangedFrom="0" laneChangedTo="0"/>
        <edge id="-283" sampledSeconds="401.27" traveltime="5.35" overlapTraveltime="5.63" density="1.53" laneDensity="1.53" occupancy="0.71" waitingTime="0.00" timeLoss="164.32" speed="13.83" speedRelative="0.59" departed="0" arrived="72" entered="72" left="0" laneChangedFrom="0" laneChangedTo="0"/>
        <edge id="-284" sampledSeconds="1081.50" traveltime="1.70" overlapTraveltime="2.04" density="12.64" laneDensity="6.32" occupancy="2.61" waitingTime="0.00" timeLoss="110.03" speed="14.07" speedRelative="0.89" departed="0" arrived="0" entered="529" left="529" laneChangedFrom="9" laneChangedTo="9"/>
        <edge id="-2841" sampledSeconds="1870.37" traveltime="3.09" overlapTraveltime="3.54" density="11.71" laneDensity="3.90" occupancy="1.75" waitingTime="51.00" timeLoss="201.99" speed="13.95" speedRelative="0.89" departed="0" arrived="0" entered="529" left="528" laneChangedFrom="32" laneChangedTo="32"/>
        <edge id="-285" sampledSeconds="16509.84" traveltime="21.36" overlapTraveltime="21.99" density="54.34" laneDensity="13.58" occupancy="6.66" waitingTime="10328.00" timeLoss="12688.41" speed="4.07" speedRelative="0.23" departed="0" arrived="0" entered="752" left="747" laneChangedFrom="178" laneChangedTo="178"/>
        <edge id="-2851" sampledSeconds="4387.34" traveltime="5.52" overlapTraveltime="5.83" density="14.93" laneDensity="4.98" occupancy="2.33" waitingTime="0.00" timeLoss="703.26" speed="14.87" speedRelative="0.83" departed="0" arrived="0" entered="756" left="752" laneChangedFrom="183" laneChangedTo="183"/>
        <edge id="-286" sampledSeconds="11347.90" traveltime="8.29" overlapTraveltime="8.99" density="46.19" laneDensity="9.24" occupancy="4.29" waitingTime="2099.00" timeLoss="5419.00" speed="8.14" speedRelative="0.52" departed="0" arrived="0" entered="1266" left="1256" laneChangedFrom="198" laneChangedTo="198"/>
        <edge id="-287" sampledSeconds="4830.03" traveltime="19.29" overlapTraveltime="19.52" density="3.62" laneDensity="1.81" occupancy="0.89" waitingTime="0.00" timeLoss="790.78" speed="19.24" speedRelative="0.82" departed="0" arrived="247" entered="249" left="0" laneChangedFrom="2" laneChangedTo="2"/>
        <edge id="-288" sampledSeconds="5106.54" traveltime="5.68" overlapTraveltime="5.98" density="16.86" laneDensity="8.43" occupancy="3.95" waitingTime="0.00" timeLoss="840.49" speed="14.90" speedRelative="0.83" departed="0" arrived="0" entered="854" left="853" laneChangedFrom="19" laneChangedTo="19"/>
        <edge id="-2881" sampledSeconds="9932.02" traveltime="10.85" overlapTraveltime="11.69" density="33.93" laneDensity="11.31" occupancy="5.40" waitingTime="2614.00" timeLoss="5762.80" speed="7.38" speedRelative="0.41" departed="0" arrived="0" entered="852" left="847" laneChangedFrom="79" laneChangedTo="79"/>
        <edge id="-289" sampledSeconds="5334.42" traveltime="15.32" overlapTraveltime="15.55" density="5.11" laneDensity="2.55" occupancy="1.25" waitingTime="0.00" timeLoss="943.31" speed="18.98" speedRelative="0.81" departed="0" arrived="343" entered="344" left="0" laneChangedFrom="11" laneChangedTo="11"/>
        <edge id="-290" sampledSeconds="1499.46" traveltime="1.42" overlapTraveltime="1.88" density="21.63" laneDensity="7.21" occupancy="2.76" waitingTime="72.00" timeLoss="512.31" speed="12.91" speedRelative="0.64" departed="0" arrived="0" entered="798" left="798" laneChangedFrom="57" laneChangedTo="57"/>
        <edge id="-291" sampledSeconds="0.00" departed="0" arrived="0" entered="0" left="0" laneChangedFrom="0" laneChangedTo="0"/>
        <edge id="-292" sampledSeconds="45824.68" traveltime="66.57" overlapTraveltime="67.71" density="36.01" laneDensity="12.00" occupancy="5.96" waitingTime="22888.29" timeLoss="35073.15" speed="5.29" speedRelative="0.23" departed="690" arrived="0" entered="0" left="684" laneChangedFrom="658" laneChangedTo="658"/>
        <edge id="-293" sampledSeconds="6168.28" traveltime="9.82" overlapTraveltime="10.32" density="25.37" laneDensity="12.68" occupancy="6.08" waitingTime="2301.00" timeLoss="3997.81" speed="7.03" speedRelative="0.35" departed="0" arrived="0" entered="598" left="597" laneChangedFrom="122" laneChangedTo="122"/>
        <edge id="-294" sampledSeconds="112.88" traveltime="3.78" overlapTraveltime="4.09" density="0.64" laneDensity="0.64" occupancy="0.29" waitingTime="0.00" timeLoss="49.72" speed="13.16" speedRelative="0.56" departed="0" arrived="28" entered="28" left="0" laneChangedFrom="0" laneChangedTo="0"/>
        <edge id="-295" sampledSeconds="2353.48" traveltime="2.95" overlapTraveltime="3.22" density="12.86" laneDensity="6.43" occupancy="2.94" waitingTime="0.00" timeLoss="314.81" speed="17.33" speedRelative="0.86" departed="0" arrived="739" entered="740" left="0" laneChangedFrom="2" laneChangedTo="2"/>
        <edge id="-296" sampledSeconds="607.82" traveltime="7.35" overlapTraveltime="7.60" density="1.57" laneDensity="1.57" occupancy="0.74" waitingTime="0.00" timeLoss="215.72" speed="14.78" speedRelative="0.63" departed="0" arrived="80" entered="81" left="0" laneChangedFrom="0" laneChangedTo="0"/>
        <edge id="-297" sampledSeconds="5479.69" traveltime="8.96" overlapTraveltime="9.59" density="79.03" laneDensity="39.52" occupancy="18.65" waitingTime="3686.00" timeLoss="4709.89" speed="2.53" speedRelative="0.12" departed="0" arrived="0" entered="573" left="569" laneChangedFrom="13" laneChangedTo="13"/>
        <edge id="-298" sampledSeconds="4228.87" traveltime="5.12" overlapTraveltime="5.55" density="17.39" laneDensity="5.80" occupancy="2.71" waitingTime="519.00" timeLoss="1428.57" speed="13.07" speedRelative="0.65" departed="0" arrived="0" entered="762" left="762" laneChangedFrom="25" laneChangedTo="25"/>
        <edge id="-299" sampledSeconds="820.08" traveltime="13.47" overlapTraveltime="13.70" density="0.96" laneDensity="0.96" occupancy="0.46" waitingTime="0.00" timeLoss="192.60" speed="17.69" speedRelative="0.76" departed="0" arrived="60" entered="60" left="0" laneChangedFrom="0" laneChangedTo="0"/>
        <edge id="-300" sampledSeconds="7733.82" traveltime="10.82" overlapTraveltime="11.55" density="31.48" laneDensity="7.87" occupancy="3.75" waitingTime="2695.00" timeLoss="4517.85" speed="6.34" speedRelative="0.40" departed="0" arrived="0" entered="672" left="668" laneChangedFrom="154" laneChangedTo="154"/>
        <edge id="-301" sampledSeconds="364.12" traveltime="5.05" overlapTraveltime="5.34" density="1.51" laneDensity="0.76" occupancy="0.35" waitingTime="0.00" timeLoss="152.30" speed="13.47" speedRelative="0.58" departed="0" arrived="69" entered="69" left="0" laneChangedFrom="0" laneChangedTo="0"/>
        <edge id="-302" sampledSeconds="1824.46" traveltime="1.13" overlapTraveltime="1.54" density="36.97" laneDensity="18.48" occupancy="6.77" waitingTime="0.00" timeLoss="361.29" speed="12.17" speedRelative="0.77" departed="0" arrived="0" entered="1187" left="1187" laneChangedFrom="7" laneChangedTo="7"/>
        <edge id="-303" sampledSeconds="819.50" traveltime="8.62" overlapTraveltime="8.85" density="1.47" laneDensity="1.47" occupancy="0.71" waitingTime="0.00" timeLoss="177.91" speed="18.04" speedRelative="0.77" departed="0" arrived="93" entered="93" left="0" laneChangedFrom="0" laneChangedTo="0"/>
        <edge id="-304" sampledSeconds="9703.70" traveltime="26.45" overlapTraveltime="26.79" density="6.95" laneDensity="3.47" occupancy="1.71" waitingTime="0.00" timeLoss="649.43" speed="14.67" speedRelative="0.93" departed="0" arrived="361" entered="365" left="0" laneChangedFrom="86" laneChangedTo="86"/>
        <edge id="-305" sampledSeconds="9810.58" traveltime="22.28" overlapTraveltime="22.55" density="6.89" laneDensity="3.44" occupancy="1.69" waitingTime="0.00" timeLoss="1123.17" speed="17.77" speedRelative="0.88" departed="0" arrived="434" entered="438" left="0" laneChangedFrom="58" laneChangedTo="58"/>
        <edge id="-306" sampledSeconds="765.87" traveltime="2.88" overlapTraveltime="3.19" density="5.48" laneDensity="5.48" occupancy="2.43" waitingTime="0.00" timeLoss="314.54" speed="13.74" speedRelative="0.59" departed="0" arrived="245" entered="245" left="0" laneChangedFrom="0" laneChangedTo="0"/>
        <edge id="-307" sampledSeconds="4033.03" traveltime="3.44" overlapTraveltime="4.02" density="31.80" laneDensity="15.90" occupancy="6.90" waitingTime="0.00" timeLoss="1160.89" speed="10.00" speedRelative="0.64" departed="0" arrived="0" entered="1003" left="1001" laneChangedFrom="27" laneChangedTo="27"/>
        <edge id="-308" sampledSeconds="26529.71" traveltime="64.09" overlapTraveltime="64.95" density="18.63" laneDensity="6.21" occupancy="3.09" waitingTime="13554.00" timeLoss="18345.85" speed="6.17" speedRelative="0.30" departed="417" arrived="0" entered="0" left="407" laneChangedFrom="354" laneChangedTo="354"/>
        <edge id="-309" sampledSeconds="1625.01" traveltime="40.55" overlapTraveltime="41.74" density="9.24" laneDensity="4.62" occupancy="2.27" waitingTime="1166.00" timeLoss="1519.43" speed="1.29" speedRelative="0.06" departed="43" arrived="0" entered="0" left="43" laneChangedFrom="27" laneChangedTo="27"/>
        <edge id="-310" sampledSeconds="41860.62" traveltime="54.28" overlapTraveltime="55.38" density="22.57" laneDensity="5.64" occupancy="2.80" waitingTime="13668.00" timeLoss="24595.05" speed="9.39" speedRelative="0.40" departed="765" arrived="0" entered="0" left="758" laneChangedFrom="1487" laneChangedTo="1487"/>
        <edge id="-311" sampledSeconds="0.00" departed="0" arrived="0" entered="0" left="0" laneChangedFrom="0" laneChangedTo="0"/>
        <edge id="-312" sampledSeconds="4806.08" traveltime="9.50" overlapTraveltime="10.00" density="26.26" laneDensity="8.75" occupancy="4.26" waitingTime="821.00" timeLoss="3466.54" speed="5.59" speedRelative="0.28" departed="530" arrived="0" entered="0" left="529" laneChangedFrom="114" laneChangedTo="114"/>
        <edge id="-313" sampledSeconds="2258.12" traveltime="3.27" overlapTraveltime="3.89" density="24.24" laneDensity="8.08" occupancy="3.52" waitingTime="558.00" timeLoss="1084.77" speed="7.95" speedRelative="0.50" departed="0" arrived="0" entered="581" left="581" laneChangedFrom="8" laneChangedTo="8"/>
        <edge id="-314" sampledSeconds="1181.45" traveltime="1.82" overlapTraveltime="2.36" density="23.68" laneDensity="23.68" occupancy="8.71" waitingTime="0.00" timeLoss="775.49" speed="8.01" speedRelative="0.34" departed="0" arrived="526" entered="526" left="0" laneChangedFrom="0" laneChangedTo="0"/>
        <edge id="-315" sampledSeconds="3452.91" traveltime="5.56" overlapTraveltime="5.90" density="11.80" laneDensity="3.93" occupancy="1.85" waitingTime="0.00" timeLoss="200.17" speed="14.62" speedRelative="0.93" departed="0" arrived="0" entered="588" left="584" laneChangedFrom="89" laneChangedTo="89"/>
        <edge id="-3151" sampledSeconds="2771.29" traveltime="4.36" overlapTraveltime="4.75" density="13.29" laneDensity="2.66" occupancy="1.23" waitingTime="143.00" timeLoss="407.73" speed="13.24" speedRelative="0.84" departed="0" arrived="0" entered="584" left="583" laneChangedFrom="45" laneChangedTo="45"/>
        <edge id="-316" sampledSeconds="0.00" departed="0" arrived="0" entered="0" left="0" laneChangedFrom="0" laneChangedTo="0"/>
        <edge id="-317" sampledSeconds="2484.77" traveltime="126.72" overlapTraveltime="82.13" density="82.86" laneDensity="41.43" occupancy="20.45" waitingTime="2288.00" timeLoss="2450.71" speed="0.16" speedRelative="0.01" departed="49" arrived="0" entered="0" left="49" laneChangedFrom="31" laneChangedTo="31"/>
        <edge id="-318" sampledSeconds="4057.68" traveltime="39.48" overlapTraveltime="40.86" density="15.50" laneDensity="7.75" occupancy="3.81" waitingTime="2628.00" timeLoss="3674.17" speed="1.90" speedRelative="0.08" departed="107" arrived="0" entered="0" left="106" laneChangedFrom="11" laneChangedTo="11"/>
        <edge id="-319" sampledSeconds="21682.57" traveltime="138.98" overlapTraveltime="139.55" density="88.20" laneDensity="29.40" occupancy="14.64" waitingTime="18959.00" timeLoss="21141.66" speed="0.53" speedRelative="0.02" departed="167" arrived="0" entered="0" left="167" laneChangedFrom="171" laneChangedTo="171"/>
        <edge id="-320" sampledSeconds="0.00" departed="0" arrived="0" entered="0" left="0" laneChangedFrom="0" laneChangedTo="0"/>
        <edge id="-321" sampledSeconds="2524.06" traveltime="3.77" overlapTraveltime="4.35" density="51.14" laneDensity="10.23" occupancy="4.52" waitingTime="1203.00" timeLoss="1817.91" speed="4.30" speedRelative="0.27" departed="0" arrived="0" entered="582" left="578" laneChangedFrom="28" laneChangedTo="28"/>
        <edge id="-322" sampledSeconds="4298.06" traveltime="3.25" overlapTraveltime="3.88" density="38.91" laneDensity="19.46" occupancy="8.37" waitingTime="26.00" timeLoss="1444.91" speed="9.20" speedRelative="0.58" departed="0" arrived="0" entered="1110" left="1108" laneChangedFrom="11" laneChangedTo="11"/>
        <edge id="-3221" sampledSeconds="10288.32" traveltime="8.81" overlapTraveltime="9.27" density="24.61" laneDensity="12.30" occupancy="5.88" waitingTime="1.00" timeLoss="1715.20" speed="13.07" speedRelative="0.83" departed="0" arrived="0" entered="1110" left="1110" laneChangedFrom="74" laneChangedTo="74"/>
        <edge id="-323" sampledSeconds="186.65" traveltime="2.06" overlapTraveltime="2.60" density="3.25" laneDensity="3.25" occupancy="1.25" waitingTime="0.00" timeLoss="121.80" speed="8.05" speedRelative="0.34" departed="0" arrived="77" entered="77" left="0" laneChangedFrom="0" laneChangedTo="0"/>
        <edge id="-324" sampledSeconds="22158.31" traveltime="191.47" overlapTraveltime="192.83" density="55.12" laneDensity="27.56" occupancy="13.74" waitingTime="19238.00" timeLoss="21531.74" speed="0.61" speedRelative="0.03" departed="122" arrived="0" entered="0" left="114" laneChangedFrom="84" laneChangedTo="84"/>
        <edge id="-325" sampledSeconds="752.38" traveltime="34.90" overlapTraveltime="36.49" density="1.35" laneDensity="0.68" occupancy="0.33" waitingTime="372.00" timeLoss="601.91" speed="4.37" speedRelative="0.19" departed="22" arrived="0" entered="0" left="20" laneChangedFrom="2" laneChangedTo="2"/>
        <edge id="-326" sampledSeconds="15492.66" traveltime="48.24" overlapTraveltime="48.99" density="111.09" laneDensity="27.77" occupancy="13.71" waitingTime="11674.00" timeLoss="14777.81" speed="0.89" speedRelative="0.04" departed="363" arrived="0" entered="0" left="350" laneChangedFrom="443" laneChangedTo="443"/>
        <edge id="-327" sampledSeconds="1779.93" traveltime="3.12" overlapTraveltime="3.52" density="11.27" laneDensity="5.64" occupancy="2.52" waitingTime="1.00" timeLoss="186.45" speed="13.89" speedRelative="0.88" departed="0" arrived="0" entered="506" left="506" laneChangedFrom="17" laneChangedTo="17"/>
        <edge id="-3271" sampledSeconds="2116.80" traveltime="3.67" overlapTraveltime="4.19" density="24.25" laneDensity="8.08" occupancy="3.59" waitingTime="616.00" timeLoss="1152.05" speed="6.99" speedRelative="0.44" departed="0" arrived="0" entered="506" left="506" laneChangedFrom="49" laneChangedTo="49"/>
        <edge id="-328" sampledSeconds="7885.04" traveltime="14.12" overlapTraveltime="15.17" density="62.19" laneDensity="15.55" occupancy="7.44" waitingTime="4462.00" timeLoss="6465.35" speed="2.65" speedRelative="0.17" departed="0" arrived="0" entered="520" left="519" laneChangedFrom="43" laneChangedTo="43"/>
        <edge id="-329" sampledSeconds="665.52" traveltime="0.85" overlapTraveltime="1.45" density="29.67" laneDensity="29.67" occupancy="8.41" waitingTime="0.00" timeLoss="443.64" speed="7.73" speedRelative="0.33" departed="0" arrived="502" entered="502" left="0" laneChangedFrom="0" laneChangedTo="0"/>
        <edge id="-330" sampledSeconds="0.00" departed="0" arrived="0" entered="0" left="0" laneChangedFrom="0" laneChangedTo="0"/>
        <edge id="-331" sampledSeconds="0.00" departed="0" arrived="0" entered="0" left="0" laneChangedFrom="0" laneChangedTo="0"/>
    </interval>
</meandata>
