<?xml version="1.0" encoding="UTF-8"?>

<!-- generated on 2025-05-23 13:06:13 by Eclipse SUMO sumo Version 1.21.0
<sumoConfiguration xmlns:xsi="http://www.w3.org/2001/XMLSchema-instance" xsi:noNamespaceSchemaLocation="http://sumo.dlr.de/xsd/sumoConfiguration.xsd">

    <input>
        <net-file value="chatt.net.xml"/>
        <route-files value="chatt.rou.xml"/>
        <additional-files value="Edge.add.xml"/>
    </input>

    <time>
        <begin value="28800"/>
        <end value="32400"/>
        <step-length value="1"/>
    </time>

    <report>
        <no-warnings value="true"/>
        <no-step-log value="true"/>
    </report>

    <traci_server>
        <remote-port value="64174"/>
    </traci_server>

    <random_number>
        <seed value="812"/>
    </random_number>

    <gui_only>
        <start value="t"/>
    </gui_only>

</sumoConfiguration>
-->

<meandata xmlns:xsi="http://www.w3.org/2001/XMLSchema-instance" xsi:noNamespaceSchemaLocation="http://sumo.dlr.de/xsd/meandata_file.xsd">
    <interval begin="28800.00" end="32400.00" id="1">
        <edge id="-280" sampledSeconds="10744.66" traveltime="13.00" overlapTraveltime="13.79" density="107.32" laneDensity="35.77" occupancy="16.81" waitingTime="7007.00" timeLoss="9053.86" speed="2.38" speedRelative="0.15" departed="0" arrived="0" entered="780" left="779" laneChangedFrom="37" laneChangedTo="37"/>
        <edge id="-2801" sampledSeconds="22127.55" traveltime="28.16" overlapTraveltime="28.70" density="17.46" laneDensity="8.73" occupancy="4.32" waitingTime="302.89" timeLoss="4446.84" speed="12.44" speedRelative="0.79" departed="784" arrived="0" entered="0" left="780" laneChangedFrom="303" laneChangedTo="303"/>
        <edge id="-281" sampledSeconds="2262.48" traveltime="1.96" overlapTraveltime="2.32" density="24.28" laneDensity="8.09" occupancy="3.38" waitingTime="0.00" timeLoss="331.79" speed="13.33" speedRelative="0.85" departed="0" arrived="0" entered="978" left="977" laneChangedFrom="119" laneChangedTo="119"/>
        <edge id="-282" sampledSeconds="75.12" traveltime="0.90" overlapTraveltime="1.38" density="2.51" laneDensity="2.51" occupancy="0.81" waitingTime="0.00" timeLoss="43.52" speed="9.63" speedRelative="0.41" departed="0" arrived="60" entered="60" left="0" laneChangedFrom="0" laneChangedTo="0"/>
        <edge id="-283" sampledSeconds="491.28" traveltime="5.41" overlapTraveltime="5.69" density="1.87" laneDensity="1.87" occupancy="0.87" waitingTime="0.00" timeLoss="198.90" speed="13.69" speedRelative="0.59" departed="0" arrived="87" entered="87" left="0" laneChangedFrom="0" laneChangedTo="0"/>
        <edge id="-284" sampledSeconds="2211.40" traveltime="2.92" overlapTraveltime="3.82" density="25.85" laneDensity="12.93" occupancy="5.42" waitingTime="554.00" timeLoss="1148.00" speed="7.53" speedRelative="0.48" departed="0" arrived="0" entered="579" left="578" laneChangedFrom="15" laneChangedTo="15"/>
        <edge id="-2841" sampledSeconds="7196.37" traveltime="10.05" overlapTraveltime="12.52" density="45.04" laneDensity="15.01" occupancy="6.69" waitingTime="3097.00" timeLoss="5281.39" speed="3.94" speedRelative="0.25" departed="0" arrived="0" entered="577" left="572" laneChangedFrom="5" laneChangedTo="5"/>
        <edge id="-285" sampledSeconds="24607.82" traveltime="22.47" overlapTraveltime="23.04" density="80.99" laneDensity="20.25" occupancy="9.94" waitingTime="15773.00" timeLoss="19219.63" speed="3.88" speedRelative="0.22" departed="0" arrived="0" entered="1075" left="1053" laneChangedFrom="222" laneChangedTo="222"/>
        <edge id="-2851" sampledSeconds="6280.45" traveltime="5.53" overlapTraveltime="5.84" density="21.37" laneDensity="7.12" occupancy="3.34" waitingTime="0.00" timeLoss="1060.28" speed="14.84" speedRelative="0.83" departed="0" arrived="0" entered="1077" left="1075" laneChangedFrom="235" laneChangedTo="235"/>
        <edge id="-286" sampledSeconds="13244.06" traveltime="9.78" overlapTraveltime="10.75" density="53.90" laneDensity="10.78" occupancy="4.97" waitingTime="3592.00" timeLoss="7433.13" speed="6.82" speedRelative="0.43" departed="0" arrived="0" entered="1233" left="1228" laneChangedFrom="178" laneChangedTo="178"/>
        <edge id="-287" sampledSeconds="6746.58" traveltime="19.47" overlapTraveltime="19.70" density="5.06" laneDensity="2.53" occupancy="1.24" waitingTime="0.00" timeLoss="1133.13" speed="19.06" speedRelative="0.82" departed="0" arrived="343" entered="343" left="0" laneChangedFrom="10" laneChangedTo="10"/>
        <edge id="-288" sampledSeconds="5457.69" traveltime="5.79" overlapTraveltime="6.10" density="18.02" laneDensity="9.01" occupancy="4.22" waitingTime="0.00" timeLoss="953.54" speed="14.60" speedRelative="0.82" departed="0" arrived="0" entered="897" left="891" laneChangedFrom="46" laneChangedTo="46"/>
        <edge id="-2881" sampledSeconds="11195.65" traveltime="11.46" overlapTraveltime="12.62" density="38.24" laneDensity="12.75" occupancy="6.05" waitingTime="3238.00" timeLoss="6797.71" speed="6.84" speedRelative="0.38" departed="0" arrived="0" entered="891" left="879" laneChangedFrom="97" laneChangedTo="97"/>
        <edge id="-289" sampledSeconds="6399.92" traveltime="15.08" overlapTraveltime="15.31" density="6.13" laneDensity="3.06" occupancy="1.50" waitingTime="0.00" timeLoss="1089.51" speed="19.28" speedRelative="0.83" departed="0" arrived="419" entered="419" left="0" laneChangedFrom="11" laneChangedTo="11"/>
        <edge id="-290" sampledSeconds="1800.58" traveltime="1.36" overlapTraveltime="1.83" density="25.97" laneDensity="8.66" occupancy="3.28" waitingTime="107.00" timeLoss="594.37" speed="13.23" speedRelative="0.65" departed="0" arrived="0" entered="982" left="982" laneChangedFrom="72" laneChangedTo="72"/>
        <edge id="-291" sampledSeconds="0.00" departed="0" arrived="0" entered="0" left="0" laneChangedFrom="0" laneChangedTo="0"/>
        <edge id="-292" sampledSeconds="43305.50" traveltime="62.85" overlapTraveltime="63.90" density="34.03" laneDensity="11.34" occupancy="5.63" waitingTime="21668.00" timeLoss="32509.35" speed="5.61" speedRelative="0.24" departed="690" arrived="0" entered="0" left="678" laneChangedFrom="765" laneChangedTo="765"/>
        <edge id="-293" sampledSeconds="7161.60" traveltime="11.37" overlapTraveltime="11.88" density="29.45" laneDensity="14.73" occupancy="7.09" waitingTime="3151.00" timeLoss="4954.02" speed="6.11" speedRelative="0.30" departed="0" arrived="0" entered="603" left="602" laneChangedFrom="106" laneChangedTo="106"/>
        <edge id="-294" sampledSeconds="201.15" traveltime="3.82" overlapTraveltime="4.13" density="1.14" laneDensity="1.14" occupancy="0.52" waitingTime="0.00" timeLoss="84.08" speed="13.04" speedRelative="0.56" departed="0" arrived="49" entered="49" left="0" laneChangedFrom="0" laneChangedTo="0"/>
        <edge id="-295" sampledSeconds="2737.69" traveltime="2.92" overlapTraveltime="3.19" density="14.96" laneDensity="7.48" occupancy="3.42" waitingTime="0.00" timeLoss="366.97" speed="17.50" speedRelative="0.86" departed="0" arrived="870" entered="870" left="0" laneChangedFrom="5" laneChangedTo="5"/>
        <edge id="-296" sampledSeconds="707.45" traveltime="7.25" overlapTraveltime="7.50" density="1.83" laneDensity="1.83" occupancy="0.87" waitingTime="0.00" timeLoss="254.44" speed="14.99" speedRelative="0.64" departed="0" arrived="95" entered="95" left="0" laneChangedFrom="0" laneChangedTo="0"/>
        <edge id="-297" sampledSeconds="5616.41" traveltime="9.27" overlapTraveltime="9.88" density="81.00" laneDensity="40.50" occupancy="19.18" waitingTime="3872.00" timeLoss="4856.11" speed="2.46" speedRelative="0.12" departed="0" arrived="0" entered="570" left="567" laneChangedFrom="11" laneChangedTo="11"/>
        <edge id="-298" sampledSeconds="6172.95" traveltime="6.16" overlapTraveltime="6.62" density="25.39" laneDensity="8.46" occupancy="4.00" waitingTime="1275.00" timeLoss="2770.55" speed="10.97" speedRelative="0.54" departed="0" arrived="0" entered="934" left="932" laneChangedFrom="36" laneChangedTo="36"/>
        <edge id="-299" sampledSeconds="1079.52" traveltime="13.47" overlapTraveltime="13.70" density="1.26" laneDensity="1.26" occupancy="0.61" waitingTime="0.00" timeLoss="250.15" speed="17.70" speedRelative="0.76" departed="0" arrived="79" entered="79" left="0" laneChangedFrom="0" laneChangedTo="0"/>
        <edge id="-300" sampledSeconds="12567.28" traveltime="11.59" overlapTraveltime="12.27" density="51.15" laneDensity="12.79" occupancy="6.13" waitingTime="4628.00" timeLoss="7701.26" speed="5.97" speedRelative="0.38" departed="0" arrived="0" entered="1027" left="1019" laneChangedFrom="196" laneChangedTo="196"/>
        <edge id="-301" sampledSeconds="568.72" traveltime="4.91" overlapTraveltime="5.19" density="2.36" laneDensity="1.18" occupancy="0.55" waitingTime="0.00" timeLoss="229.35" speed="13.85" speedRelative="0.59" departed="0" arrived="111" entered="111" left="0" laneChangedFrom="0" laneChangedTo="0"/>
        <edge id="-302" sampledSeconds="1984.70" traveltime="1.25" overlapTraveltime="1.73" density="40.21" laneDensity="20.11" occupancy="7.38" waitingTime="0.00" timeLoss="479.75" speed="10.81" speedRelative="0.69" departed="0" arrived="0" entered="1148" left="1148" laneChangedFrom="8" laneChangedTo="8"/>
        <edge id="-303" sampledSeconds="848.67" traveltime="8.71" overlapTraveltime="8.94" density="1.52" laneDensity="1.52" occupancy="0.73" waitingTime="0.00" timeLoss="186.68" speed="17.85" speedRelative="0.76" departed="0" arrived="95" entered="97" left="0" laneChangedFrom="0" laneChangedTo="0"/>
        <edge id="-304" sampledSeconds="6192.88" traveltime="26.41" overlapTraveltime="26.74" density="4.43" laneDensity="2.22" occupancy="1.09" waitingTime="0.00" timeLoss="388.98" speed="14.69" speedRelative="0.93" departed="0" arrived="232" entered="232" left="0" laneChangedFrom="45" laneChangedTo="45"/>
        <edge id="-305" sampledSeconds="8848.32" traveltime="22.23" overlapTraveltime="22.49" density="6.21" laneDensity="3.11" occupancy="1.53" waitingTime="0.00" timeLoss="962.59" speed="17.81" speedRelative="0.88" departed="0" arrived="393" entered="397" left="0" laneChangedFrom="56" laneChangedTo="56"/>
        <edge id="-306" sampledSeconds="629.11" traveltime="2.78" overlapTraveltime="3.08" density="4.50" laneDensity="4.50" occupancy="2.00" waitingTime="0.00" timeLoss="245.21" speed="14.22" speedRelative="0.61" departed="0" arrived="208" entered="208" left="0" laneChangedFrom="0" laneChangedTo="0"/>
        <edge id="-307" sampledSeconds="3191.98" traveltime="2.85" overlapTraveltime="3.24" density="25.17" laneDensity="12.58" occupancy="5.47" waitingTime="20.00" timeLoss="612.50" speed="12.40" speedRelative="0.79" departed="0" arrived="0" entered="985" left="984" laneChangedFrom="28" laneChangedTo="28"/>
        <edge id="-308" sampledSeconds="26099.51" traveltime="62.82" overlapTraveltime="63.71" density="18.33" laneDensity="6.11" occupancy="3.04" waitingTime="13111.00" timeLoss="17857.88" speed="6.29" speedRelative="0.31" departed="417" arrived="0" entered="0" left="411" laneChangedFrom="419" laneChangedTo="419"/>
        <edge id="-309" sampledSeconds="1432.88" traveltime="35.58" overlapTraveltime="36.91" density="8.14" laneDensity="4.07" occupancy="2.00" waitingTime="972.00" timeLoss="1326.11" speed="1.46" speedRelative="0.06" departed="43" arrived="0" entered="0" left="42" laneChangedFrom="18" laneChangedTo="18"/>
        <edge id="-310" sampledSeconds="41966.97" traveltime="54.71" overlapTraveltime="55.79" density="22.63" laneDensity="5.66" occupancy="2.80" waitingTime="13850.00" timeLoss="24844.08" speed="9.32" speedRelative="0.40" departed="765" arrived="0" entered="0" left="755" laneChangedFrom="1589" laneChangedTo="1589"/>
        <edge id="-311" sampledSeconds="0.00" departed="0" arrived="0" entered="0" left="0" laneChangedFrom="0" laneChangedTo="0"/>
        <edge id="-312" sampledSeconds="5357.17" traveltime="10.64" overlapTraveltime="11.14" density="29.27" laneDensity="9.76" occupancy="4.76" waitingTime="1155.00" timeLoss="4010.04" speed="5.01" speedRelative="0.25" departed="531" arrived="0" entered="0" left="527" laneChangedFrom="132" laneChangedTo="132"/>
        <edge id="-313" sampledSeconds="3399.69" traveltime="4.34" overlapTraveltime="5.29" density="36.49" laneDensity="12.16" occupancy="5.28" waitingTime="1292.00" timeLoss="2101.39" speed="5.84" speedRelative="0.37" departed="0" arrived="0" entered="643" left="643" laneChangedFrom="2" laneChangedTo="2"/>
        <edge id="-314" sampledSeconds="650.05" traveltime="1.83" overlapTraveltime="2.36" density="13.03" laneDensity="13.03" occupancy="4.77" waitingTime="0.00" timeLoss="424.75" speed="8.00" speedRelative="0.34" departed="0" arrived="286" entered="287" left="0" laneChangedFrom="0" laneChangedTo="0"/>
        <edge id="-315" sampledSeconds="5783.47" traveltime="5.61" overlapTraveltime="5.96" density="19.77" laneDensity="6.59" occupancy="3.10" waitingTime="0.00" timeLoss="421.12" speed="14.49" speedRelative="0.92" departed="0" arrived="0" entered="975" left="969" laneChangedFrom="141" laneChangedTo="141"/>
        <edge id="-3151" sampledSeconds="4834.32" traveltime="4.58" overlapTraveltime="4.99" density="23.18" laneDensity="4.64" occupancy="2.15" waitingTime="322.00" timeLoss="931.19" speed="12.61" speedRelative="0.80" departed="0" arrived="0" entered="969" left="969" laneChangedFrom="66" laneChangedTo="66"/>
        <edge id="-316" sampledSeconds="0.00" departed="0" arrived="0" entered="0" left="0" laneChangedFrom="0" laneChangedTo="0"/>
        <edge id="-317" sampledSeconds="1924.87" traveltime="97.12" overlapTraveltime="63.63" density="64.19" laneDensity="32.09" occupancy="15.78" waitingTime="1721.00" timeLoss="1890.83" speed="0.21" speedRelative="0.01" departed="49" arrived="0" entered="0" left="49" laneChangedFrom="32" laneChangedTo="32"/>
        <edge id="-318" sampledSeconds="4223.61" traveltime="40.90" overlapTraveltime="42.24" density="16.13" laneDensity="8.07" occupancy="3.97" waitingTime="2764.00" timeLoss="3832.92" speed="1.84" speedRelative="0.08" departed="107" arrived="0" entered="0" left="107" laneChangedFrom="11" laneChangedTo="11"/>
        <edge id="-319" sampledSeconds="30421.88" traveltime="196.72" overlapTraveltime="197.03" density="123.74" laneDensity="41.25" occupancy="20.56" waitingTime="27189.00" timeLoss="29888.20" speed="0.37" speedRelative="0.02" departed="167" arrived="0" entered="0" left="165" laneChangedFrom="177" laneChangedTo="177"/>
        <edge id="-320" sampledSeconds="0.00" departed="0" arrived="0" entered="0" left="0" laneChangedFrom="0" laneChangedTo="0"/>
        <edge id="-321" sampledSeconds="4113.08" traveltime="3.68" overlapTraveltime="4.25" density="83.33" laneDensity="16.67" occupancy="7.35" waitingTime="1987.00" timeLoss="2937.62" speed="4.41" speedRelative="0.28" departed="0" arrived="0" entered="969" left="968" laneChangedFrom="23" laneChangedTo="23"/>
        <edge id="-322" sampledSeconds="3535.45" traveltime="3.24" overlapTraveltime="3.80" density="32.01" laneDensity="16.01" occupancy="7.01" waitingTime="358.00" timeLoss="1235.73" speed="9.40" speedRelative="0.60" departed="0" arrived="0" entered="931" left="931" laneChangedFrom="6" laneChangedTo="6"/>
        <edge id="-3221" sampledSeconds="8188.74" traveltime="8.40" overlapTraveltime="8.80" density="19.59" laneDensity="9.79" occupancy="4.68" waitingTime="34.00" timeLoss="971.12" speed="13.77" speedRelative="0.87" departed="0" arrived="0" entered="931" left="931" laneChangedFrom="51" laneChangedTo="51"/>
        <edge id="-323" sampledSeconds="521.82" traveltime="2.03" overlapTraveltime="2.56" density="9.10" laneDensity="9.10" occupancy="3.49" waitingTime="0.00" timeLoss="337.61" speed="8.17" speedRelative="0.35" departed="0" arrived="217" entered="217" left="0" laneChangedFrom="0" laneChangedTo="0"/>
        <edge id="-324" sampledSeconds="35821.58" traveltime="310.00" overlapTraveltime="311.23" density="89.11" laneDensity="44.55" occupancy="22.24" waitingTime="31792.00" timeLoss="35190.58" speed="0.37" speedRelative="0.02" departed="122" arrived="0" entered="0" left="116" laneChangedFrom="80" laneChangedTo="80"/>
        <edge id="-325" sampledSeconds="612.59" traveltime="27.15" overlapTraveltime="28.77" density="1.10" laneDensity="0.55" occupancy="0.27" waitingTime="234.00" timeLoss="460.01" speed="5.54" speedRelative="0.24" departed="22" arrived="0" entered="0" left="22" laneChangedFrom="2" laneChangedTo="2"/>
        <edge id="-326" sampledSeconds="15977.06" traveltime="49.99" overlapTraveltime="50.65" density="114.56" laneDensity="28.64" occupancy="14.15" waitingTime="11919.00" timeLoss="15271.69" speed="0.86" speedRelative="0.04" departed="360" arrived="0" entered="0" left="353" laneChangedFrom="419" laneChangedTo="419"/>
        <edge id="-327" sampledSeconds="4398.17" traveltime="4.10" overlapTraveltime="4.83" density="27.85" laneDensity="13.92" occupancy="6.23" waitingTime="408.00" timeLoss="1546.85" speed="10.11" speedRelative="0.64" departed="0" arrived="0" entered="910" left="910" laneChangedFrom="14" laneChangedTo="14"/>
        <edge id="-3271" sampledSeconds="5328.31" traveltime="5.27" overlapTraveltime="5.87" density="61.03" laneDensity="20.34" occupancy="8.68" waitingTime="2107.00" timeLoss="3609.47" speed="4.99" speedRelative="0.32" departed="0" arrived="0" entered="910" left="907" laneChangedFrom="31" laneChangedTo="31"/>
        <edge id="-328" sampledSeconds="3432.00" traveltime="11.25" overlapTraveltime="12.22" density="27.07" laneDensity="6.77" occupancy="3.21" waitingTime="1880.00" timeLoss="2660.73" speed="3.29" speedRelative="0.21" departed="0" arrived="0" entered="281" left="281" laneChangedFrom="27" laneChangedTo="27"/>
        <edge id="-329" sampledSeconds="412.86" traveltime="0.76" overlapTraveltime="1.31" density="18.41" laneDensity="18.41" occupancy="5.33" waitingTime="0.00" timeLoss="260.83" speed="8.55" speedRelative="0.37" departed="0" arrived="363" entered="363" left="0" laneChangedFrom="0" laneChangedTo="0"/>
        <edge id="-330" sampledSeconds="0.00" departed="0" arrived="0" entered="0" left="0" laneChangedFrom="0" laneChangedTo="0"/>
        <edge id="-331" sampledSeconds="0.00" departed="0" arrived="0" entered="0" left="0" laneChangedFrom="0" laneChangedTo="0"/>
    </interval>
</meandata>
