<?xml version="1.0" encoding="UTF-8"?>

<!-- generated on 2025-03-12 13:56:52 by Eclipse SUMO sumo Version 1.21.0
<sumoConfiguration xmlns:xsi="http://www.w3.org/2001/XMLSchema-instance" xsi:noNamespaceSchemaLocation="http://sumo.dlr.de/xsd/sumoConfiguration.xsd">

    <input>
        <net-file value="chatt.net.xml"/>
        <route-files value="chatt.rou.xml"/>
        <additional-files value="updated_signal.xml,Edge.add.xml"/>
    </input>

    <output>
        <edgedata-output value="EdgeData.xml"/>
    </output>

    <time>
        <begin value="28800"/>
        <end value="32400"/>
        <step-length value="1"/>
    </time>

    <report>
        <no-warnings value="true"/>
        <no-step-log value="true"/>
    </report>

    <random_number>
        <seed value="101"/>
    </random_number>

    <gui_only>
        <start value="t"/>
    </gui_only>

</sumoConfiguration>
-->

<meandata xmlns:xsi="http://www.w3.org/2001/XMLSchema-instance" xsi:noNamespaceSchemaLocation="http://sumo.dlr.de/xsd/meandata_file.xsd">
    <interval begin="28800.00" end="32400.00" id="1">
        <edge id="-280" sampledSeconds="13201.64" traveltime="16.94" overlapTraveltime="17.81" density="79.67" laneDensity="26.56" occupancy="12.48" waitingTime="6495.00" timeLoss="10783.98" speed="2.87" speedRelative="0.18" departed="0" arrived="0" entered="778" left="763" laneChangedFrom="34" laneChangedTo="35" teleported="68"/>
        <edge id="-2801" sampledSeconds="26227.06" traveltime="33.00" overlapTraveltime="34.10" density="20.46" laneDensity="10.23" occupancy="5.06" waitingTime="858.00" timeLoss="8391.89" speed="10.59" speedRelative="0.67" departed="785" arrived="0" entered="0" left="778" laneChangedFrom="242" laneChangedTo="242" teleported="17"/>
        <edge id="-281" sampledSeconds="14469.10" traveltime="32.13" overlapTraveltime="33.50" density="84.99" laneDensity="21.25" occupancy="10.22" waitingTime="7558.00" timeLoss="13055.70" speed="1.56" speedRelative="0.10" departed="0" arrived="0" entered="492" left="456" laneChangedFrom="218" laneChangedTo="218" teleported="63"/>
        <edge id="-282" sampledSeconds="124.85" traveltime="3.58" overlapTraveltime="4.16" density="1.54" laneDensity="1.54" occupancy="0.61" waitingTime="0.00" timeLoss="89.67" speed="6.59" speedRelative="0.28" departed="0" arrived="31" entered="31" left="0" laneChangedFrom="0" laneChangedTo="0"/>
        <edge id="-283" sampledSeconds="621.43" traveltime="8.92" overlapTraveltime="9.27" density="1.93" laneDensity="1.93" occupancy="0.88" waitingTime="0.00" timeLoss="347.54" speed="10.20" speedRelative="0.44" departed="0" arrived="68" entered="69" left="1" laneChangedFrom="0" laneChangedTo="0" teleported="1"/>
        <edge id="-284" sampledSeconds="9047.79" traveltime="20.89" overlapTraveltime="22.04" density="26.88" laneDensity="8.96" occupancy="4.32" waitingTime="3360.00" timeLoss="6475.74" speed="4.47" speedRelative="0.28" departed="0" arrived="0" entered="422" left="422" laneChangedFrom="52" laneChangedTo="53" teleported="46"/>
        <edge id="-285" sampledSeconds="8872.70" traveltime="21.22" overlapTraveltime="22.27" density="37.53" laneDensity="9.38" occupancy="4.57" waitingTime="5402.00" timeLoss="7306.12" speed="3.17" speedRelative="0.18" departed="0" arrived="0" entered="408" left="407" laneChangedFrom="129" laneChangedTo="131" teleported="37"/>
        <edge id="-2851" sampledSeconds="4206.85" traveltime="10.35" overlapTraveltime="10.66" density="9.10" laneDensity="3.03" occupancy="1.43" waitingTime="0.00" timeLoss="1232.35" speed="12.51" speedRelative="0.70" departed="0" arrived="0" entered="410" left="399" laneChangedFrom="187" laneChangedTo="198"/>
        <edge id="-286" sampledSeconds="16642.28" traveltime="13.84" overlapTraveltime="14.51" density="51.04" laneDensity="10.21" occupancy="4.84" waitingTime="3347.00" timeLoss="9656.36" speed="6.59" speedRelative="0.42" departed="0" arrived="0" entered="1211" left="1086" laneChangedFrom="360" laneChangedTo="407" teleported="38"/>
        <edge id="-287" sampledSeconds="3780.09" traveltime="22.54" overlapTraveltime="22.78" density="2.71" laneDensity="1.35" occupancy="0.66" waitingTime="1.00" timeLoss="959.56" speed="17.25" speedRelative="0.74" departed="0" arrived="161" entered="173" left="1" laneChangedFrom="29" laneChangedTo="29" teleported="1"/>
        <edge id="-288" sampledSeconds="19332.00" traveltime="25.01" overlapTraveltime="25.77" density="27.67" laneDensity="9.22" occupancy="4.47" waitingTime="4295.00" timeLoss="10880.00" speed="7.73" speedRelative="0.43" departed="0" arrived="0" entered="816" left="758" laneChangedFrom="396" laneChangedTo="408" teleported="64"/>
        <edge id="-289" sampledSeconds="3712.31" traveltime="18.95" overlapTraveltime="19.20" density="3.38" laneDensity="1.69" occupancy="0.81" waitingTime="0.00" timeLoss="1101.28" speed="16.16" speedRelative="0.69" departed="0" arrived="191" entered="218" left="17" laneChangedFrom="12" laneChangedTo="12" teleported="17"/>
        <edge id="-290" sampledSeconds="4067.92" traveltime="7.13" overlapTraveltime="8.02" density="27.84" laneDensity="9.28" occupancy="3.99" waitingTime="298.00" timeLoss="2914.05" speed="5.69" speedRelative="0.28" departed="0" arrived="0" entered="527" left="514" laneChangedFrom="133" laneChangedTo="133" teleported="10"/>
        <edge id="-291" sampledSeconds="0.00" departed="0" arrived="0" entered="0" left="0" laneChangedFrom="0" laneChangedTo="0"/>
        <edge id="-292" sampledSeconds="32469.61" traveltime="47.15" overlapTraveltime="48.32" density="24.20" laneDensity="8.07" occupancy="4.00" waitingTime="9980.00" timeLoss="21473.11" speed="7.82" speedRelative="0.34" departed="693" arrived="0" entered="0" left="686" laneChangedFrom="597" laneChangedTo="597" teleported="128"/>
        <edge id="-293" sampledSeconds="6249.97" traveltime="9.62" overlapTraveltime="10.34" density="20.06" laneDensity="10.03" occupancy="4.62" waitingTime="72.00" timeLoss="3516.26" speed="8.85" speedRelative="0.44" departed="0" arrived="0" entered="615" left="606" laneChangedFrom="122" laneChangedTo="122" teleported="2"/>
        <edge id="-294" sampledSeconds="805.28" traveltime="24.94" overlapTraveltime="25.18" density="0.55" laneDensity="0.55" occupancy="0.26" waitingTime="0.00" timeLoss="229.57" speed="16.30" speedRelative="0.70" departed="0" arrived="32" entered="32" left="0" laneChangedFrom="0" laneChangedTo="0"/>
        <edge id="-295" sampledSeconds="1061.69" traveltime="2.03" overlapTraveltime="2.40" density="13.10" laneDensity="6.55" occupancy="2.64" waitingTime="0.00" timeLoss="452.79" speed="11.47" speedRelative="0.57" departed="0" arrived="460" entered="468" left="8" laneChangedFrom="2" laneChangedTo="2" teleported="8"/>
        <edge id="-296" sampledSeconds="805.19" traveltime="10.50" overlapTraveltime="10.78" density="1.82" laneDensity="1.82" occupancy="0.85" waitingTime="0.00" timeLoss="394.32" speed="11.83" speedRelative="0.51" departed="0" arrived="75" entered="77" left="2" laneChangedFrom="0" laneChangedTo="0" teleported="2"/>
        <edge id="-297" sampledSeconds="6768.25" traveltime="13.99" overlapTraveltime="14.82" density="46.32" laneDensity="23.16" occupancy="10.97" waitingTime="3209.00" timeLoss="5711.63" speed="3.08" speedRelative="0.15" departed="0" arrived="0" entered="474" left="464" laneChangedFrom="85" laneChangedTo="85" teleported="30"/>
        <edge id="-298" sampledSeconds="5256.24" traveltime="9.95" overlapTraveltime="10.56" density="16.87" laneDensity="5.62" occupancy="2.63" waitingTime="538.00" timeLoss="2981.42" speed="8.67" speedRelative="0.43" departed="0" arrived="0" entered="500" left="492" laneChangedFrom="35" laneChangedTo="35" teleported="6"/>
        <edge id="-299" sampledSeconds="3631.00" traveltime="13.36" overlapTraveltime="13.59" density="4.08" laneDensity="4.08" occupancy="1.98" waitingTime="0.00" timeLoss="746.76" speed="18.57" speedRelative="0.80" departed="0" arrived="269" entered="270" left="0" laneChangedFrom="0" laneChangedTo="0"/>
        <edge id="-300" sampledSeconds="5921.01" traveltime="25.94" overlapTraveltime="27.11" density="18.16" laneDensity="4.54" occupancy="2.18" waitingTime="3133.00" timeLoss="4591.78" speed="3.53" speedRelative="0.22" departed="0" arrived="0" entered="224" left="212" laneChangedFrom="207" laneChangedTo="214" teleported="12"/>
        <edge id="-301" sampledSeconds="344.22" traveltime="8.15" overlapTraveltime="8.47" density="1.09" laneDensity="0.54" occupancy="0.25" waitingTime="0.00" timeLoss="186.22" speed="10.95" speedRelative="0.47" departed="0" arrived="41" entered="41" left="0" laneChangedFrom="0" laneChangedTo="0"/>
        <edge id="-302" sampledSeconds="6327.10" traveltime="5.10" overlapTraveltime="5.81" density="49.26" laneDensity="24.63" occupancy="10.86" waitingTime="98.00" timeLoss="3604.71" speed="7.00" speedRelative="0.44" departed="0" arrived="0" entered="1133" left="1121" laneChangedFrom="38" laneChangedTo="38" teleported="4"/>
        <edge id="-303" sampledSeconds="1249.12" traveltime="13.22" overlapTraveltime="13.48" density="1.98" laneDensity="1.98" occupancy="0.94" waitingTime="0.00" timeLoss="531.52" speed="13.34" speedRelative="0.57" departed="0" arrived="93" entered="97" left="3" laneChangedFrom="0" laneChangedTo="0" teleported="3"/>
        <edge id="-304" sampledSeconds="6905.73" traveltime="30.91" overlapTraveltime="31.26" density="4.77" laneDensity="2.38" occupancy="1.16" waitingTime="0.00" timeLoss="1192.19" speed="13.03" speedRelative="0.83" departed="0" arrived="219" entered="233" left="1" laneChangedFrom="87" laneChangedTo="92" teleported="1"/>
        <edge id="-305" sampledSeconds="7699.27" traveltime="27.11" overlapTraveltime="27.38" density="5.22" laneDensity="2.61" occupancy="1.27" waitingTime="0.00" timeLoss="1855.11" speed="15.13" speedRelative="0.75" departed="0" arrived="273" entered="294" left="7" laneChangedFrom="53" laneChangedTo="53" teleported="7"/>
        <edge id="-306" sampledSeconds="1370.29" traveltime="6.11" overlapTraveltime="6.51" density="7.06" laneDensity="7.06" occupancy="3.11" waitingTime="1.00" timeLoss="837.07" speed="9.05" speedRelative="0.39" departed="0" arrived="223" entered="250" left="27" laneChangedFrom="0" laneChangedTo="0" teleported="27"/>
        <edge id="-307" sampledSeconds="7607.77" traveltime="7.27" overlapTraveltime="7.82" density="34.67" laneDensity="11.56" occupancy="5.17" waitingTime="49.00" timeLoss="3624.48" speed="8.44" speedRelative="0.54" departed="0" arrived="0" entered="1065" left="1029" laneChangedFrom="282" laneChangedTo="288" teleported="16"/>
        <edge id="-308" sampledSeconds="25686.64" traveltime="62.37" overlapTraveltime="63.48" density="17.43" laneDensity="5.81" occupancy="2.89" waitingTime="11308.00" timeLoss="17314.75" speed="6.53" speedRelative="0.32" departed="417" arrived="0" entered="0" left="410" laneChangedFrom="388" laneChangedTo="388" teleported="114"/>
        <edge id="-309" sampledSeconds="2385.04" traveltime="54.66" overlapTraveltime="56.28" density="1.63" laneDensity="0.82" occupancy="0.40" waitingTime="1007.00" timeLoss="1638.43" speed="7.29" speedRelative="0.31" departed="43" arrived="0" entered="0" left="42" laneChangedFrom="30" laneChangedTo="30" teleported="2"/>
        <edge id="-310" sampledSeconds="44984.64" traveltime="59.41" overlapTraveltime="60.32" density="23.56" laneDensity="5.89" occupancy="2.93" waitingTime="11462.00" timeLoss="27718.77" speed="8.88" speedRelative="0.38" departed="765" arrived="0" entered="0" left="755" laneChangedFrom="1874" laneChangedTo="1874" teleported="142"/>
        <edge id="-311" sampledSeconds="0.00" departed="0" arrived="0" entered="0" left="0" laneChangedFrom="0" laneChangedTo="0"/>
        <edge id="-312" sampledSeconds="4180.66" traveltime="9.21" overlapTraveltime="9.80" density="51.59" laneDensity="17.20" occupancy="8.17" waitingTime="837.00" timeLoss="3597.60" speed="2.81" speedRelative="0.14" departed="531" arrived="0" entered="0" left="530" laneChangedFrom="79" laneChangedTo="79" teleported="11"/>
        <edge id="-313" sampledSeconds="3903.93" traveltime="7.71" overlapTraveltime="8.33" density="22.93" laneDensity="7.64" occupancy="3.48" waitingTime="752.00" timeLoss="2347.89" speed="6.28" speedRelative="0.40" departed="0" arrived="0" entered="470" left="468" laneChangedFrom="33" laneChangedTo="33" teleported="3"/>
        <edge id="-314" sampledSeconds="1703.01" traveltime="3.02" overlapTraveltime="3.52" density="21.32" laneDensity="21.32" occupancy="8.43" waitingTime="3.00" timeLoss="1130.50" speed="7.73" speedRelative="0.33" departed="0" arrived="519" entered="570" left="51" laneChangedFrom="0" laneChangedTo="0" teleported="51"/>
        <edge id="-315" sampledSeconds="2626.22" traveltime="20.11" overlapTraveltime="21.22" density="4.37" laneDensity="0.87" occupancy="0.42" waitingTime="522.00" timeLoss="1256.51" speed="8.10" speedRelative="0.51" departed="0" arrived="0" entered="127" left="123" laneChangedFrom="90" laneChangedTo="90" teleported="1"/>
        <edge id="-316" sampledSeconds="194.87" traveltime="6.11" overlapTraveltime="6.66" density="2.44" laneDensity="2.44" occupancy="1.14" waitingTime="1.00" timeLoss="154.84" speed="4.08" speedRelative="0.17" departed="36" arrived="0" entered="0" left="36" laneChangedFrom="0" laneChangedTo="0"/>
        <edge id="-317" sampledSeconds="3773.13" traveltime="105.52" overlapTraveltime="112.38" density="46.69" laneDensity="23.34" occupancy="11.62" waitingTime="3328.00" timeLoss="3729.06" speed="0.24" speedRelative="0.01" departed="49" arrived="0" entered="0" left="49" laneChangedFrom="34" laneChangedTo="34" teleported="6"/>
        <edge id="-318" sampledSeconds="3665.21" traveltime="35.43" overlapTraveltime="37.50" density="11.37" laneDensity="5.69" occupancy="2.82" waitingTime="1990.00" timeLoss="3257.93" speed="2.52" speedRelative="0.11" departed="107" arrived="0" entered="0" left="107" laneChangedFrom="10" laneChangedTo="10" teleported="5"/>
        <edge id="-319" sampledSeconds="7576.20" traveltime="47.86" overlapTraveltime="49.41" density="23.99" laneDensity="8.00" occupancy="3.96" waitingTime="4860.00" timeLoss="6947.58" speed="1.88" speedRelative="0.08" departed="167" arrived="0" entered="0" left="166" laneChangedFrom="254" laneChangedTo="254" teleported="22"/>
        <edge id="-320" sampledSeconds="303.05" traveltime="6.52" overlapTraveltime="7.06" density="3.45" laneDensity="3.45" occupancy="1.63" waitingTime="2.00" timeLoss="238.50" speed="4.16" speedRelative="0.18" departed="52" arrived="0" entered="0" left="52" laneChangedFrom="0" laneChangedTo="0"/>
        <edge id="-321" sampledSeconds="1315.95" traveltime="12.45" overlapTraveltime="13.29" density="10.25" laneDensity="2.05" occupancy="0.96" waitingTime="694.00" timeLoss="1057.79" speed="3.06" speedRelative="0.19" departed="0" arrived="0" entered="100" left="100" laneChangedFrom="23" laneChangedTo="23" teleported="2"/>
        <edge id="-322" sampledSeconds="3504.42" traveltime="4.68" overlapTraveltime="5.43" density="22.20" laneDensity="11.10" occupancy="5.00" waitingTime="39.00" timeLoss="1524.30" speed="9.00" speedRelative="0.57" departed="0" arrived="0" entered="647" left="645" laneChangedFrom="20" laneChangedTo="20" teleported="2"/>
        <edge id="-3221" sampledSeconds="7271.72" traveltime="10.85" overlapTraveltime="11.21" density="16.43" laneDensity="8.22" occupancy="3.87" waitingTime="0.00" timeLoss="1953.21" speed="11.41" speedRelative="0.73" departed="0" arrived="0" entered="651" left="641" laneChangedFrom="177" laneChangedTo="177"/>
        <edge id="-323" sampledSeconds="1397.40" traveltime="2.25" overlapTraveltime="2.64" density="15.91" laneDensity="15.91" occupancy="6.61" waitingTime="0.00" timeLoss="727.14" speed="11.14" speedRelative="0.48" departed="0" arrived="552" entered="557" left="4" laneChangedFrom="0" laneChangedTo="0" teleported="4"/>
        <edge id="-324" sampledSeconds="5724.68" traveltime="48.27" overlapTraveltime="49.73" density="12.97" laneDensity="6.48" occupancy="3.21" waitingTime="3456.00" timeLoss="5085.42" speed="2.57" speedRelative="0.11" departed="122" arrived="0" entered="0" left="120" laneChangedFrom="90" laneChangedTo="90" teleported="15"/>
        <edge id="-325" sampledSeconds="880.92" traveltime="39.65" overlapTraveltime="41.73" density="1.40" laneDensity="0.70" occupancy="0.35" waitingTime="405.00" timeLoss="714.43" speed="4.31" speedRelative="0.18" departed="22" arrived="0" entered="0" left="22" laneChangedFrom="2" laneChangedTo="2"/>
        <edge id="-326" sampledSeconds="13213.39" traveltime="39.55" overlapTraveltime="41.15" density="68.06" laneDensity="17.01" occupancy="8.38" waitingTime="8460.00" timeLoss="12360.83" speed="1.43" speedRelative="0.06" departed="363" arrived="0" entered="0" left="361" laneChangedFrom="428" laneChangedTo="428" teleported="27"/>
        <edge id="-327" sampledSeconds="7498.55" traveltime="18.42" overlapTraveltime="19.46" density="22.28" laneDensity="7.43" occupancy="3.53" waitingTime="1954.00" timeLoss="5058.44" speed="5.06" speedRelative="0.32" departed="0" arrived="0" entered="395" left="389" laneChangedFrom="149" laneChangedTo="150" teleported="23"/>
        <edge id="-328" sampledSeconds="6699.14" traveltime="21.89" overlapTraveltime="23.29" density="30.53" laneDensity="7.63" occupancy="3.65" waitingTime="3492.00" timeLoss="5493.47" speed="2.83" speedRelative="0.18" departed="0" arrived="0" entered="295" left="285" laneChangedFrom="90" laneChangedTo="90" teleported="16"/>
        <edge id="-329" sampledSeconds="1571.51" traveltime="1.61" overlapTraveltime="2.00" density="26.38" laneDensity="26.38" occupancy="10.06" waitingTime="0.00" timeLoss="838.41" speed="10.76" speedRelative="0.46" departed="0" arrived="834" entered="877" left="42" laneChangedFrom="0" laneChangedTo="0" teleported="42"/>
        <edge id="-330" sampledSeconds="374.72" traveltime="5.44" overlapTraveltime="6.11" density="6.29" laneDensity="6.29" occupancy="2.92" waitingTime="5.00" timeLoss="305.62" speed="3.53" speedRelative="0.15" departed="84" arrived="0" entered="0" left="84" laneChangedFrom="0" laneChangedTo="0"/>
        <edge id="-331" sampledSeconds="2068.72" traveltime="19.25" overlapTraveltime="19.57" density="2.32" laneDensity="2.32" occupancy="1.15" waitingTime="0.00" timeLoss="910.90" speed="12.90" speedRelative="0.55" departed="108" arrived="0" entered="0" left="108" laneChangedFrom="0" laneChangedTo="0"/>
    </interval>
</meandata>
