<?xml version="1.0" encoding="UTF-8"?>

<!-- generated on 2025-03-17 13:08:18 by Eclipse SUMO sumo Version 1.21.0
<sumoConfiguration xmlns:xsi="http://www.w3.org/2001/XMLSchema-instance" xsi:noNamespaceSchemaLocation="http://sumo.dlr.de/xsd/sumoConfiguration.xsd">

    <input>
        <net-file value="chatt.net.xml"/>
        <route-files value="chatt.rou.xml"/>
        <additional-files value="updated_signal.xml,Edge.add.xml"/>
    </input>

    <output>
        <edgedata-output value="EdgeData.xml"/>
    </output>

    <time>
        <begin value="28800"/>
        <end value="32400"/>
        <step-length value="1"/>
    </time>

    <report>
        <no-warnings value="true"/>
        <no-step-log value="true"/>
    </report>

    <random_number>
        <seed value="101"/>
    </random_number>

    <gui_only>
        <start value="t"/>
    </gui_only>

</sumoConfiguration>
-->

<meandata xmlns:xsi="http://www.w3.org/2001/XMLSchema-instance" xsi:noNamespaceSchemaLocation="http://sumo.dlr.de/xsd/meandata_file.xsd">
    <interval begin="28800.00" end="32400.00" id="1">
        <edge id="-280" sampledSeconds="17100.47" traveltime="21.30" overlapTraveltime="22.07" density="103.20" laneDensity="34.40" occupancy="16.11" waitingTime="9764.69" timeLoss="14574.82" speed="2.31" speedRelative="0.15" departed="0" arrived="0" entered="778" left="774" laneChangedFrom="57" laneChangedTo="57"/>
        <edge id="-2801" sampledSeconds="27795.31" traveltime="34.56" overlapTraveltime="36.08" density="21.68" laneDensity="10.84" occupancy="5.35" waitingTime="1694.00" timeLoss="9930.44" speed="10.01" speedRelative="0.64" departed="785" arrived="0" entered="0" left="778" laneChangedFrom="248" laneChangedTo="248"/>
        <edge id="-281" sampledSeconds="16367.43" traveltime="32.24" overlapTraveltime="33.41" density="96.14" laneDensity="24.04" occupancy="11.54" waitingTime="7901.00" timeLoss="14774.02" speed="1.57" speedRelative="0.10" departed="0" arrived="0" entered="493" left="487" laneChangedFrom="217" laneChangedTo="217"/>
        <edge id="-282" sampledSeconds="117.91" traveltime="3.44" overlapTraveltime="4.02" density="1.46" laneDensity="1.46" occupancy="0.57" waitingTime="0.00" timeLoss="83.44" speed="6.84" speedRelative="0.29" departed="0" arrived="31" entered="31" left="0" laneChangedFrom="0" laneChangedTo="0"/>
        <edge id="-283" sampledSeconds="602.24" traveltime="8.50" overlapTraveltime="8.82" density="1.87" laneDensity="1.87" occupancy="0.85" waitingTime="0.00" timeLoss="322.93" speed="10.72" speedRelative="0.46" departed="0" arrived="69" entered="69" left="0" laneChangedFrom="0" laneChangedTo="0"/>
        <edge id="-284" sampledSeconds="8765.49" traveltime="19.86" overlapTraveltime="20.87" density="26.04" laneDensity="8.68" occupancy="4.18" waitingTime="3110.00" timeLoss="6141.81" speed="4.72" speedRelative="0.30" departed="0" arrived="0" entered="421" left="421" laneChangedFrom="58" laneChangedTo="58" teleported="1"/>
        <edge id="-285" sampledSeconds="10492.06" traveltime="24.84" overlapTraveltime="25.83" density="44.38" laneDensity="11.10" occupancy="5.42" waitingTime="6720.00" timeLoss="8895.64" speed="2.74" speedRelative="0.15" departed="0" arrived="0" entered="408" left="400" laneChangedFrom="149" laneChangedTo="149"/>
        <edge id="-2851" sampledSeconds="4354.70" traveltime="10.36" overlapTraveltime="10.68" density="9.42" laneDensity="3.14" occupancy="1.47" waitingTime="1.00" timeLoss="1276.65" speed="12.50" speedRelative="0.70" departed="0" arrived="0" entered="408" left="408" laneChangedFrom="220" laneChangedTo="220"/>
        <edge id="-286" sampledSeconds="16414.74" traveltime="13.02" overlapTraveltime="13.66" density="50.34" laneDensity="10.07" occupancy="4.75" waitingTime="2938.00" timeLoss="9092.57" speed="7.00" speedRelative="0.44" departed="0" arrived="0" entered="1205" left="1199" laneChangedFrom="443" laneChangedTo="443"/>
        <edge id="-287" sampledSeconds="3882.09" traveltime="22.60" overlapTraveltime="22.84" density="2.78" laneDensity="1.39" occupancy="0.67" waitingTime="1.00" timeLoss="986.72" speed="17.20" speedRelative="0.74" departed="0" arrived="170" entered="172" left="0" laneChangedFrom="24" laneChangedTo="24"/>
        <edge id="-288" sampledSeconds="21998.44" traveltime="26.26" overlapTraveltime="27.00" density="31.48" laneDensity="10.49" occupancy="5.09" waitingTime="4647.00" timeLoss="12820.22" speed="7.37" speedRelative="0.41" departed="0" arrived="0" entered="817" left="808" laneChangedFrom="501" laneChangedTo="501"/>
        <edge id="-289" sampledSeconds="4022.05" traveltime="18.68" overlapTraveltime="18.93" density="3.66" laneDensity="1.83" occupancy="0.88" waitingTime="0.00" timeLoss="1167.01" speed="16.39" speedRelative="0.70" departed="0" arrived="213" entered="214" left="1" laneChangedFrom="12" laneChangedTo="12" teleported="1"/>
        <edge id="-290" sampledSeconds="3846.41" traveltime="6.72" overlapTraveltime="7.53" density="26.32" laneDensity="8.77" occupancy="3.75" waitingTime="191.00" timeLoss="2684.08" speed="6.06" speedRelative="0.30" departed="0" arrived="0" entered="523" left="522" laneChangedFrom="124" laneChangedTo="124" teleported="12"/>
        <edge id="-291" sampledSeconds="0.00" departed="0" arrived="0" entered="0" left="0" laneChangedFrom="0" laneChangedTo="0"/>
        <edge id="-292" sampledSeconds="36275.99" traveltime="52.18" overlapTraveltime="53.34" density="27.04" laneDensity="9.01" occupancy="4.47" waitingTime="13170.00" timeLoss="25134.11" speed="7.08" speedRelative="0.30" departed="693" arrived="0" entered="0" left="687" laneChangedFrom="639" laneChangedTo="639"/>
        <edge id="-293" sampledSeconds="5985.56" traveltime="9.06" overlapTraveltime="9.76" density="19.21" laneDensity="9.60" occupancy="4.41" waitingTime="49.00" timeLoss="3212.37" speed="9.39" speedRelative="0.46" departed="0" arrived="0" entered="616" left="615" laneChangedFrom="137" laneChangedTo="137" teleported="2"/>
        <edge id="-294" sampledSeconds="765.68" traveltime="23.72" overlapTraveltime="23.96" density="0.52" laneDensity="0.52" occupancy="0.25" waitingTime="0.00" timeLoss="190.40" speed="17.13" speedRelative="0.73" departed="0" arrived="32" entered="32" left="0" laneChangedFrom="0" laneChangedTo="0"/>
        <edge id="-295" sampledSeconds="1005.25" traveltime="1.88" overlapTraveltime="2.22" density="12.41" laneDensity="6.20" occupancy="2.50" waitingTime="0.00" timeLoss="383.74" speed="12.38" speedRelative="0.61" departed="0" arrived="465" entered="467" left="2" laneChangedFrom="1" laneChangedTo="1" teleported="2"/>
        <edge id="-296" sampledSeconds="773.08" traveltime="9.83" overlapTraveltime="10.10" density="1.75" laneDensity="1.75" occupancy="0.82" waitingTime="0.00" timeLoss="352.36" speed="12.63" speedRelative="0.54" departed="0" arrived="77" entered="77" left="0" laneChangedFrom="0" laneChangedTo="0"/>
        <edge id="-297" sampledSeconds="8673.60" traveltime="17.60" overlapTraveltime="18.39" density="59.36" laneDensity="29.68" occupancy="14.20" waitingTime="4641.00" timeLoss="7582.53" speed="2.48" speedRelative="0.12" departed="0" arrived="0" entered="474" left="467" laneChangedFrom="87" laneChangedTo="87"/>
        <edge id="-298" sampledSeconds="4950.23" traveltime="9.39" overlapTraveltime="9.93" density="15.89" laneDensity="5.30" occupancy="2.48" waitingTime="603.00" timeLoss="2672.25" speed="9.22" speedRelative="0.46" departed="0" arrived="0" entered="500" left="494" laneChangedFrom="45" laneChangedTo="45"/>
        <edge id="-299" sampledSeconds="3525.42" traveltime="12.86" overlapTraveltime="13.09" density="3.96" laneDensity="3.96" occupancy="1.93" waitingTime="0.00" timeLoss="618.68" speed="19.28" speedRelative="0.83" departed="0" arrived="269" entered="271" left="0" laneChangedFrom="0" laneChangedTo="0"/>
        <edge id="-300" sampledSeconds="7594.70" traveltime="32.73" overlapTraveltime="33.93" density="23.29" laneDensity="5.82" occupancy="2.82" waitingTime="4674.00" timeLoss="6229.71" speed="2.82" speedRelative="0.18" departed="0" arrived="0" entered="224" left="222" laneChangedFrom="228" laneChangedTo="228"/>
        <edge id="-301" sampledSeconds="341.51" traveltime="8.08" overlapTraveltime="8.39" density="1.08" laneDensity="0.54" occupancy="0.25" waitingTime="0.00" timeLoss="183.21" speed="11.05" speedRelative="0.47" departed="0" arrived="41" entered="41" left="0" laneChangedFrom="0" laneChangedTo="0"/>
        <edge id="-302" sampledSeconds="6174.90" traveltime="4.82" overlapTraveltime="5.49" density="48.07" laneDensity="24.04" occupancy="10.58" waitingTime="79.00" timeLoss="3362.40" speed="7.41" speedRelative="0.47" departed="0" arrived="0" entered="1126" left="1125" laneChangedFrom="36" laneChangedTo="36"/>
        <edge id="-303" sampledSeconds="1233.64" traveltime="12.65" overlapTraveltime="12.89" density="1.96" laneDensity="1.96" occupancy="0.92" waitingTime="0.00" timeLoss="491.62" speed="13.95" speedRelative="0.60" departed="0" arrived="96" entered="96" left="0" laneChangedFrom="0" laneChangedTo="0"/>
        <edge id="-304" sampledSeconds="6813.36" traveltime="30.68" overlapTraveltime="31.04" density="4.70" laneDensity="2.35" occupancy="1.15" waitingTime="0.00" timeLoss="1145.53" speed="13.13" speedRelative="0.83" departed="0" arrived="220" entered="223" left="1" laneChangedFrom="84" laneChangedTo="84" teleported="1"/>
        <edge id="-305" sampledSeconds="7886.94" traveltime="26.68" overlapTraveltime="26.96" density="5.35" laneDensity="2.68" occupancy="1.29" waitingTime="0.00" timeLoss="1818.20" speed="15.37" speedRelative="0.76" departed="0" arrived="293" entered="293" left="0" laneChangedFrom="48" laneChangedTo="48"/>
        <edge id="-306" sampledSeconds="1513.02" traveltime="5.79" overlapTraveltime="6.18" density="7.79" laneDensity="7.79" occupancy="3.47" waitingTime="0.00" timeLoss="891.53" speed="9.54" speedRelative="0.41" departed="0" arrived="248" entered="249" left="0" laneChangedFrom="0" laneChangedTo="0"/>
        <edge id="-307" sampledSeconds="7979.13" traveltime="7.12" overlapTraveltime="7.65" density="36.36" laneDensity="12.12" occupancy="5.42" waitingTime="44.00" timeLoss="3716.92" speed="8.62" speedRelative="0.55" departed="0" arrived="0" entered="1061" left="1058" laneChangedFrom="342" laneChangedTo="342" teleported="16"/>
        <edge id="-308" sampledSeconds="29866.11" traveltime="71.81" overlapTraveltime="72.89" density="20.27" laneDensity="6.76" occupancy="3.36" waitingTime="14816.00" timeLoss="21385.98" speed="5.68" speedRelative="0.28" departed="417" arrived="0" entered="0" left="407" laneChangedFrom="391" laneChangedTo="391"/>
        <edge id="-309" sampledSeconds="2426.18" traveltime="55.66" overlapTraveltime="57.17" density="1.66" laneDensity="0.83" occupancy="0.41" waitingTime="1088.00" timeLoss="1678.39" speed="7.18" speedRelative="0.31" departed="43" arrived="0" entered="0" left="42" laneChangedFrom="30" laneChangedTo="30"/>
        <edge id="-310" sampledSeconds="52227.18" traveltime="68.40" overlapTraveltime="69.33" density="27.35" laneDensity="6.84" occupancy="3.40" waitingTime="14395.00" timeLoss="34768.06" speed="7.72" speedRelative="0.33" departed="765" arrived="0" entered="0" left="755" laneChangedFrom="1909" laneChangedTo="1909"/>
        <edge id="-311" sampledSeconds="0.00" departed="0" arrived="0" entered="0" left="0" laneChangedFrom="0" laneChangedTo="0"/>
        <edge id="-312" sampledSeconds="4077.13" traveltime="8.90" overlapTraveltime="9.44" density="50.31" laneDensity="16.77" occupancy="7.97" waitingTime="858.00" timeLoss="3486.62" speed="2.92" speedRelative="0.14" departed="531" arrived="0" entered="0" left="530" laneChangedFrom="77" laneChangedTo="77"/>
        <edge id="-313" sampledSeconds="3965.24" traveltime="7.83" overlapTraveltime="8.44" density="23.29" laneDensity="7.76" occupancy="3.55" waitingTime="943.00" timeLoss="2404.95" speed="6.20" speedRelative="0.39" departed="0" arrived="0" entered="471" left="469" laneChangedFrom="24" laneChangedTo="24"/>
        <edge id="-314" sampledSeconds="1906.65" traveltime="2.98" overlapTraveltime="3.49" density="23.87" laneDensity="23.87" occupancy="9.47" waitingTime="1.00" timeLoss="1261.47" speed="7.79" speedRelative="0.33" departed="0" arrived="572" entered="572" left="0" laneChangedFrom="0" laneChangedTo="0"/>
        <edge id="-315" sampledSeconds="2618.45" traveltime="19.83" overlapTraveltime="20.79" density="4.36" laneDensity="0.87" occupancy="0.42" waitingTime="576.00" timeLoss="1225.04" speed="8.26" speedRelative="0.52" departed="0" arrived="0" entered="126" left="126" laneChangedFrom="81" laneChangedTo="81"/>
        <edge id="-316" sampledSeconds="183.04" traveltime="5.76" overlapTraveltime="6.26" density="2.29" laneDensity="2.29" occupancy="1.07" waitingTime="0.00" timeLoss="142.62" speed="4.34" speedRelative="0.19" departed="36" arrived="0" entered="0" left="36" laneChangedFrom="0" laneChangedTo="0"/>
        <edge id="-317" sampledSeconds="5069.01" traveltime="132.57" overlapTraveltime="138.52" density="62.72" laneDensity="31.36" occupancy="15.62" waitingTime="4541.00" timeLoss="5020.34" speed="0.20" speedRelative="0.01" departed="49" arrived="0" entered="0" left="48" laneChangedFrom="34" laneChangedTo="34"/>
        <edge id="-318" sampledSeconds="4013.29" traveltime="38.64" overlapTraveltime="40.74" density="12.45" laneDensity="6.23" occupancy="3.08" waitingTime="2378.00" timeLoss="3602.18" speed="2.32" speedRelative="0.10" departed="107" arrived="0" entered="0" left="106" laneChangedFrom="10" laneChangedTo="10"/>
        <edge id="-319" sampledSeconds="8005.33" traveltime="49.65" overlapTraveltime="50.98" density="25.34" laneDensity="8.45" occupancy="4.18" waitingTime="5315.00" timeLoss="7357.93" speed="1.82" speedRelative="0.08" departed="167" arrived="0" entered="0" left="166" laneChangedFrom="254" laneChangedTo="254"/>
        <edge id="-320" sampledSeconds="273.82" traveltime="5.88" overlapTraveltime="6.37" density="3.12" laneDensity="3.12" occupancy="1.47" waitingTime="0.00" timeLoss="209.14" speed="4.61" speedRelative="0.20" departed="52" arrived="0" entered="0" left="52" laneChangedFrom="0" laneChangedTo="0"/>
        <edge id="-321" sampledSeconds="1283.19" traveltime="12.15" overlapTraveltime="12.86" density="9.99" laneDensity="2.00" occupancy="0.95" waitingTime="732.00" timeLoss="1023.30" speed="3.16" speedRelative="0.20" departed="0" arrived="0" entered="100" left="100" laneChangedFrom="26" laneChangedTo="26"/>
        <edge id="-322" sampledSeconds="3475.57" traveltime="4.66" overlapTraveltime="5.38" density="22.02" laneDensity="11.01" occupancy="4.97" waitingTime="53.00" timeLoss="1496.12" speed="9.08" speedRelative="0.58" departed="0" arrived="0" entered="646" left="646" laneChangedFrom="20" laneChangedTo="20"/>
        <edge id="-3221" sampledSeconds="7097.69" traveltime="10.59" overlapTraveltime="10.96" density="16.04" laneDensity="8.02" occupancy="3.78" waitingTime="0.00" timeLoss="1788.01" speed="11.67" speedRelative="0.74" departed="0" arrived="0" entered="650" left="646" laneChangedFrom="215" laneChangedTo="215"/>
        <edge id="-323" sampledSeconds="1347.90" traveltime="2.14" overlapTraveltime="2.52" density="15.34" laneDensity="15.34" occupancy="6.37" waitingTime="0.00" timeLoss="670.28" speed="11.68" speedRelative="0.50" departed="0" arrived="553" entered="553" left="0" laneChangedFrom="0" laneChangedTo="0"/>
        <edge id="-324" sampledSeconds="5958.66" traveltime="49.69" overlapTraveltime="50.97" density="13.50" laneDensity="6.75" occupancy="3.34" waitingTime="3738.00" timeLoss="5308.29" speed="2.50" speedRelative="0.11" departed="122" arrived="0" entered="0" left="121" laneChangedFrom="90" laneChangedTo="90"/>
        <edge id="-325" sampledSeconds="798.99" traveltime="36.15" overlapTraveltime="37.76" density="1.27" laneDensity="0.64" occupancy="0.31" waitingTime="364.00" timeLoss="631.93" speed="4.76" speedRelative="0.20" departed="22" arrived="0" entered="0" left="22" laneChangedFrom="2" laneChangedTo="2"/>
        <edge id="-326" sampledSeconds="13855.86" traveltime="40.72" overlapTraveltime="42.15" density="71.37" laneDensity="17.84" occupancy="8.79" waitingTime="9058.00" timeLoss="12982.92" speed="1.40" speedRelative="0.06" departed="363" arrived="0" entered="0" left="361" laneChangedFrom="447" laneChangedTo="447"/>
        <edge id="-327" sampledSeconds="9731.44" traveltime="23.53" overlapTraveltime="24.83" density="28.91" laneDensity="9.64" occupancy="4.61" waitingTime="3357.00" timeLoss="7250.22" speed="3.97" speedRelative="0.25" departed="0" arrived="0" entered="394" left="391" laneChangedFrom="114" laneChangedTo="116"/>
        <edge id="-328" sampledSeconds="8285.01" traveltime="27.18" overlapTraveltime="28.56" density="37.76" laneDensity="9.44" occupancy="4.56" waitingTime="5067.00" timeLoss="7070.44" speed="2.31" speedRelative="0.15" departed="0" arrived="0" entered="294" left="283" laneChangedFrom="92" laneChangedTo="92"/>
        <edge id="-329" sampledSeconds="1619.73" traveltime="1.57" overlapTraveltime="1.96" density="27.19" laneDensity="27.19" occupancy="10.38" waitingTime="0.00" timeLoss="846.57" speed="11.01" speedRelative="0.47" departed="0" arrived="875" entered="875" left="0" laneChangedFrom="0" laneChangedTo="0"/>
        <edge id="-330" sampledSeconds="343.95" traveltime="5.01" overlapTraveltime="5.67" density="5.77" laneDensity="5.77" occupancy="2.69" waitingTime="0.00" timeLoss="275.09" speed="3.80" speedRelative="0.16" departed="84" arrived="0" entered="0" left="84" laneChangedFrom="0" laneChangedTo="0"/>
        <edge id="-331" sampledSeconds="1977.67" traveltime="18.35" overlapTraveltime="18.71" density="2.22" laneDensity="2.22" occupancy="1.10" waitingTime="0.00" timeLoss="820.88" speed="13.49" speedRelative="0.58" departed="108" arrived="0" entered="0" left="108" laneChangedFrom="0" laneChangedTo="0"/>
    </interval>
</meandata>
