<?xml version="1.0" encoding="UTF-8"?>

<!-- generated on 2025-05-28 11:28:37 by Eclipse SUMO sumo Version 1.21.0
<sumoConfiguration xmlns:xsi="http://www.w3.org/2001/XMLSchema-instance" xsi:noNamespaceSchemaLocation="http://sumo.dlr.de/xsd/sumoConfiguration.xsd">

    <input>
        <net-file value="chatt.net.xml"/>
        <route-files value="chatt.rou.xml"/>
        <additional-files value="Edge.add.xml"/>
    </input>

    <time>
        <begin value="28800"/>
        <end value="32400"/>
        <step-length value="1"/>
    </time>

    <report>
        <no-warnings value="true"/>
        <no-step-log value="true"/>
    </report>

    <traci_server>
        <remote-port value="57414"/>
    </traci_server>

    <random_number>
        <seed value="812"/>
    </random_number>

    <gui_only>
        <start value="t"/>
    </gui_only>

</sumoConfiguration>
-->

<meandata xmlns:xsi="http://www.w3.org/2001/XMLSchema-instance" xsi:noNamespaceSchemaLocation="http://sumo.dlr.de/xsd/meandata_file.xsd">
    <interval begin="28800.00" end="32400.00" id="1">
        <edge id="-280" sampledSeconds="11706.46" traveltime="14.30" overlapTraveltime="15.14" density="116.93" laneDensity="38.98" occupancy="18.22" waitingTime="7893.00" timeLoss="10041.59" speed="2.17" speedRelative="0.14" departed="0" arrived="0" entered="774" left="773" laneChangedFrom="12" laneChangedTo="12"/>
        <edge id="-2801" sampledSeconds="27508.17" traveltime="35.18" overlapTraveltime="35.84" density="21.71" laneDensity="10.86" occupancy="5.37" waitingTime="3304.86" timeLoss="9995.55" speed="9.96" speedRelative="0.63" departed="783" arrived="0" entered="0" left="774" laneChangedFrom="218" laneChangedTo="218"/>
        <edge id="-281" sampledSeconds="695.80" traveltime="2.12" overlapTraveltime="2.48" density="7.47" laneDensity="2.49" occupancy="1.03" waitingTime="0.00" timeLoss="140.26" speed="12.44" speedRelative="0.79" departed="0" arrived="0" entered="281" left="280" laneChangedFrom="69" laneChangedTo="69"/>
        <edge id="-282" sampledSeconds="62.80" traveltime="0.81" overlapTraveltime="1.24" density="2.09" laneDensity="2.09" occupancy="0.67" waitingTime="0.00" timeLoss="33.42" speed="10.71" speedRelative="0.46" departed="0" arrived="54" entered="54" left="0" laneChangedFrom="0" laneChangedTo="0"/>
        <edge id="-283" sampledSeconds="400.29" traveltime="5.18" overlapTraveltime="5.45" density="1.53" laneDensity="1.53" occupancy="0.71" waitingTime="0.00" timeLoss="150.31" speed="14.30" speedRelative="0.61" departed="0" arrived="74" entered="74" left="0" laneChangedFrom="0" laneChangedTo="0"/>
        <edge id="-284" sampledSeconds="1048.02" traveltime="1.75" overlapTraveltime="2.10" density="12.25" laneDensity="6.13" occupancy="2.53" waitingTime="0.00" timeLoss="129.94" speed="13.71" speedRelative="0.87" departed="0" arrived="0" entered="500" left="499" laneChangedFrom="16" laneChangedTo="16"/>
        <edge id="-2841" sampledSeconds="3087.00" traveltime="4.69" overlapTraveltime="6.20" density="19.32" laneDensity="6.44" occupancy="2.92" waitingTime="1011.00" timeLoss="1490.48" speed="7.97" speedRelative="0.51" departed="0" arrived="0" entered="499" left="497" laneChangedFrom="21" laneChangedTo="21"/>
        <edge id="-285" sampledSeconds="27859.50" traveltime="40.46" overlapTraveltime="41.16" density="91.69" laneDensity="22.92" occupancy="11.31" waitingTime="19116.00" timeLoss="24279.50" speed="2.17" speedRelative="0.12" departed="0" arrived="0" entered="685" left="666" laneChangedFrom="363" laneChangedTo="363"/>
        <edge id="-2851" sampledSeconds="4642.60" traveltime="6.40" overlapTraveltime="6.77" density="15.80" laneDensity="5.27" occupancy="2.43" waitingTime="3.00" timeLoss="1278.41" speed="12.81" speedRelative="0.72" departed="0" arrived="0" entered="688" left="685" laneChangedFrom="46" laneChangedTo="46"/>
        <edge id="-286" sampledSeconds="4307.36" traveltime="8.35" overlapTraveltime="8.94" density="17.53" laneDensity="3.51" occupancy="1.64" waitingTime="1057.00" timeLoss="2045.42" speed="8.19" speedRelative="0.52" departed="0" arrived="0" entered="482" left="482" laneChangedFrom="94" laneChangedTo="94"/>
        <edge id="-287" sampledSeconds="12099.84" traveltime="19.29" overlapTraveltime="19.51" density="9.07" laneDensity="4.54" occupancy="2.22" waitingTime="0.00" timeLoss="2043.08" speed="19.25" speedRelative="0.82" departed="0" arrived="621" entered="621" left="0" laneChangedFrom="11" laneChangedTo="11"/>
        <edge id="-288" sampledSeconds="23314.89" traveltime="32.82" overlapTraveltime="34.31" density="76.97" laneDensity="38.49" occupancy="18.47" waitingTime="7051.35" timeLoss="19904.16" speed="2.60" speedRelative="0.15" departed="0" arrived="0" entered="686" left="674" laneChangedFrom="47" laneChangedTo="47"/>
        <edge id="-2881" sampledSeconds="29427.20" traveltime="42.32" overlapTraveltime="44.10" density="100.52" laneDensity="33.51" occupancy="16.18" waitingTime="11642.00" timeLoss="25893.59" speed="1.96" speedRelative="0.11" departed="0" arrived="0" entered="673" left="661" laneChangedFrom="123" laneChangedTo="123"/>
        <edge id="-289" sampledSeconds="11529.02" traveltime="15.43" overlapTraveltime="15.66" density="11.04" laneDensity="5.52" occupancy="2.70" waitingTime="0.00" timeLoss="2104.82" speed="18.85" speedRelative="0.81" departed="0" arrived="737" entered="738" left="0" laneChangedFrom="11" laneChangedTo="11"/>
        <edge id="-290" sampledSeconds="43.36" traveltime="2.17" overlapTraveltime="3.34" density="0.63" laneDensity="0.21" occupancy="0.08" waitingTime="6.00" timeLoss="24.07" speed="7.27" speedRelative="0.36" departed="0" arrived="0" entered="13" left="13" laneChangedFrom="8" laneChangedTo="8"/>
        <edge id="-291" sampledSeconds="0.00" departed="0" arrived="0" entered="0" left="0" laneChangedFrom="0" laneChangedTo="0"/>
        <edge id="-292" sampledSeconds="49311.87" traveltime="184.38" overlapTraveltime="185.46" density="38.75" laneDensity="12.92" occupancy="6.44" waitingTime="31460.00" timeLoss="45050.39" speed="1.93" speedRelative="0.08" departed="285" arrived="0" entered="0" left="250" laneChangedFrom="661" laneChangedTo="661"/>
        <edge id="-293" sampledSeconds="17519.80" traveltime="31.90" overlapTraveltime="32.65" density="72.06" laneDensity="36.03" occupancy="17.64" waitingTime="11446.00" timeLoss="15550.73" speed="2.22" speedRelative="0.11" departed="0" arrived="0" entered="542" left="530" laneChangedFrom="86" laneChangedTo="86"/>
        <edge id="-294" sampledSeconds="60.40" traveltime="3.55" overlapTraveltime="3.85" density="0.34" laneDensity="0.34" occupancy="0.16" waitingTime="0.00" timeLoss="22.66" speed="13.96" speedRelative="0.60" departed="0" arrived="16" entered="16" left="0" laneChangedFrom="0" laneChangedTo="0"/>
        <edge id="-295" sampledSeconds="227.68" traveltime="4.27" overlapTraveltime="4.59" density="1.24" laneDensity="0.62" occupancy="0.28" waitingTime="0.00" timeLoss="90.39" speed="12.17" speedRelative="0.60" departed="0" arrived="50" entered="50" left="0" laneChangedFrom="0" laneChangedTo="0"/>
        <edge id="-296" sampledSeconds="233.94" traveltime="6.66" overlapTraveltime="6.90" density="0.61" laneDensity="0.61" occupancy="0.29" waitingTime="0.00" timeLoss="66.80" speed="16.29" speedRelative="0.70" departed="0" arrived="34" entered="34" left="0" laneChangedFrom="0" laneChangedTo="0"/>
        <edge id="-297" sampledSeconds="8469.67" traveltime="15.12" overlapTraveltime="16.15" density="122.15" laneDensity="61.08" occupancy="27.88" waitingTime="6009.00" timeLoss="7767.35" speed="1.50" speedRelative="0.07" departed="0" arrived="0" entered="527" left="522" laneChangedFrom="20" laneChangedTo="20"/>
        <edge id="-298" sampledSeconds="20.72" traveltime="3.79" overlapTraveltime="4.14" density="0.09" laneDensity="0.03" occupancy="0.01" waitingTime="0.00" timeLoss="1.98" speed="17.51" speedRelative="0.86" departed="0" arrived="0" entered="5" left="5" laneChangedFrom="0" laneChangedTo="0"/>
        <edge id="-299" sampledSeconds="836.21" traveltime="13.51" overlapTraveltime="13.73" density="0.98" laneDensity="0.98" occupancy="0.47" waitingTime="0.00" timeLoss="210.89" speed="17.66" speedRelative="0.76" departed="0" arrived="61" entered="61" left="0" laneChangedFrom="0" laneChangedTo="0"/>
        <edge id="-300" sampledSeconds="3988.27" traveltime="9.14" overlapTraveltime="10.49" density="16.23" laneDensity="4.06" occupancy="1.87" waitingTime="406.00" timeLoss="2205.89" speed="6.99" speedRelative="0.44" departed="0" arrived="0" entered="382" left="378" laneChangedFrom="197" laneChangedTo="197"/>
        <edge id="-301" sampledSeconds="200.29" traveltime="4.76" overlapTraveltime="5.03" density="0.83" laneDensity="0.42" occupancy="0.19" waitingTime="0.00" timeLoss="77.25" speed="14.29" speedRelative="0.61" departed="0" arrived="40" entered="40" left="0" laneChangedFrom="0" laneChangedTo="0"/>
        <edge id="-302" sampledSeconds="729.16" traveltime="1.08" overlapTraveltime="1.49" density="14.77" laneDensity="7.39" occupancy="2.70" waitingTime="0.00" timeLoss="123.38" speed="12.56" speedRelative="0.80" departed="0" arrived="0" entered="490" left="490" laneChangedFrom="1" laneChangedTo="1"/>
        <edge id="-303" sampledSeconds="309.76" traveltime="8.31" overlapTraveltime="8.53" density="0.56" laneDensity="0.56" occupancy="0.27" waitingTime="0.00" timeLoss="67.04" speed="18.70" speedRelative="0.80" departed="0" arrived="36" entered="37" left="0" laneChangedFrom="0" laneChangedTo="0"/>
        <edge id="-304" sampledSeconds="9401.12" traveltime="27.02" overlapTraveltime="27.35" density="6.73" laneDensity="3.37" occupancy="1.66" waitingTime="0.00" timeLoss="701.86" speed="14.36" speedRelative="0.91" departed="0" arrived="343" entered="347" left="0" laneChangedFrom="102" laneChangedTo="102"/>
        <edge id="-305" sampledSeconds="10154.77" traveltime="22.25" overlapTraveltime="22.51" density="7.13" laneDensity="3.57" occupancy="1.75" waitingTime="0.00" timeLoss="1143.69" speed="17.79" speedRelative="0.88" departed="0" arrived="450" entered="452" left="0" laneChangedFrom="63" laneChangedTo="63"/>
        <edge id="-306" sampledSeconds="783.47" traveltime="2.80" overlapTraveltime="3.10" density="5.60" laneDensity="5.60" occupancy="2.49" waitingTime="0.00" timeLoss="309.83" speed="14.15" speedRelative="0.61" departed="0" arrived="257" entered="257" left="0" laneChangedFrom="0" laneChangedTo="0"/>
        <edge id="-307" sampledSeconds="4921.13" traveltime="4.22" overlapTraveltime="4.94" density="38.80" laneDensity="19.40" occupancy="8.45" waitingTime="1.00" timeLoss="1901.27" speed="8.14" speedRelative="0.52" departed="0" arrived="0" entered="998" left="995" laneChangedFrom="29" laneChangedTo="29"/>
        <edge id="-308" sampledSeconds="27322.95" traveltime="65.96" overlapTraveltime="66.82" density="19.19" laneDensity="6.40" occupancy="3.18" waitingTime="13900.00" timeLoss="19120.67" speed="5.99" speedRelative="0.30" departed="416" arrived="0" entered="0" left="412" laneChangedFrom="334" laneChangedTo="334"/>
        <edge id="-309" sampledSeconds="1970.19" traveltime="49.64" overlapTraveltime="50.75" density="11.20" laneDensity="5.60" occupancy="2.76" waitingTime="1493.00" timeLoss="1869.91" speed="1.06" speedRelative="0.05" departed="43" arrived="0" entered="0" left="42" laneChangedFrom="33" laneChangedTo="33"/>
        <edge id="-310" sampledSeconds="49450.78" traveltime="64.53" overlapTraveltime="65.36" density="26.67" laneDensity="6.67" occupancy="3.31" waitingTime="20099.00" timeLoss="32123.45" speed="7.96" speedRelative="0.34" departed="765" arrived="0" entered="0" left="752" laneChangedFrom="1617" laneChangedTo="1617"/>
        <edge id="-311" sampledSeconds="0.00" departed="0" arrived="0" entered="0" left="0" laneChangedFrom="0" laneChangedTo="0"/>
        <edge id="-312" sampledSeconds="10830.11" traveltime="23.93" overlapTraveltime="24.38" density="59.17" laneDensity="19.72" occupancy="9.73" waitingTime="6238.00" timeLoss="9585.64" speed="2.29" speedRelative="0.11" departed="493" arrived="0" entered="0" left="486" laneChangedFrom="352" laneChangedTo="352"/>
        <edge id="-313" sampledSeconds="2647.12" traveltime="4.18" overlapTraveltime="4.85" density="28.41" laneDensity="9.47" occupancy="4.17" waitingTime="763.00" timeLoss="1542.61" speed="6.37" speedRelative="0.40" departed="0" arrived="0" entered="546" left="546" laneChangedFrom="91" laneChangedTo="91"/>
        <edge id="-314" sampledSeconds="237.37" traveltime="1.83" overlapTraveltime="2.36" density="4.76" laneDensity="4.76" occupancy="1.75" waitingTime="0.00" timeLoss="155.06" speed="7.99" speedRelative="0.34" departed="0" arrived="105" entered="105" left="0" laneChangedFrom="0" laneChangedTo="0"/>
        <edge id="-315" sampledSeconds="1681.03" traveltime="5.64" overlapTraveltime="5.98" density="5.75" laneDensity="1.92" occupancy="0.90" waitingTime="0.00" timeLoss="126.60" speed="14.42" speedRelative="0.92" departed="0" arrived="0" entered="281" left="281" laneChangedFrom="84" laneChangedTo="84"/>
        <edge id="-3151" sampledSeconds="1401.21" traveltime="4.58" overlapTraveltime="5.01" density="6.72" laneDensity="1.34" occupancy="0.62" waitingTime="44.00" timeLoss="272.03" speed="12.57" speedRelative="0.80" departed="0" arrived="0" entered="281" left="279" laneChangedFrom="15" laneChangedTo="15"/>
        <edge id="-316" sampledSeconds="1623.98" traveltime="19.43" overlapTraveltime="19.25" density="32.55" laneDensity="16.27" occupancy="7.72" waitingTime="835.00" timeLoss="1488.41" speed="0.98" speedRelative="0.04" departed="116" arrived="0" entered="0" left="115" laneChangedFrom="1" laneChangedTo="1"/>
        <edge id="-317" sampledSeconds="1840.84" traveltime="92.38" overlapTraveltime="60.85" density="61.39" laneDensity="30.69" occupancy="15.07" waitingTime="1624.00" timeLoss="1807.72" speed="0.22" speedRelative="0.01" departed="49" arrived="0" entered="0" left="49" laneChangedFrom="25" laneChangedTo="25"/>
        <edge id="-318" sampledSeconds="4006.48" traveltime="38.79" overlapTraveltime="40.07" density="15.30" laneDensity="7.65" occupancy="3.77" waitingTime="2626.00" timeLoss="3625.72" speed="1.94" speedRelative="0.08" departed="107" arrived="0" entered="0" left="107" laneChangedFrom="17" laneChangedTo="17"/>
        <edge id="-319" sampledSeconds="22922.52" traveltime="147.12" overlapTraveltime="147.71" density="93.24" laneDensity="31.08" occupancy="15.48" waitingTime="20097.00" timeLoss="22379.00" speed="0.50" speedRelative="0.02" departed="167" arrived="0" entered="0" left="166" laneChangedFrom="174" laneChangedTo="174"/>
        <edge id="-320" sampledSeconds="1065.67" traveltime="16.09" overlapTraveltime="16.77" density="18.58" laneDensity="18.58" occupancy="8.76" waitingTime="458.00" timeLoss="961.73" speed="1.25" speedRelative="0.05" departed="84" arrived="0" entered="0" left="84" laneChangedFrom="0" laneChangedTo="0"/>
        <edge id="-321" sampledSeconds="884.85" traveltime="2.63" overlapTraveltime="3.19" density="17.93" laneDensity="3.59" occupancy="1.52" waitingTime="283.00" timeLoss="546.59" speed="5.87" speedRelative="0.37" departed="0" arrived="0" entered="279" left="279" laneChangedFrom="20" laneChangedTo="20"/>
        <edge id="-322" sampledSeconds="1531.95" traveltime="2.39" overlapTraveltime="2.85" density="13.87" laneDensity="6.94" occupancy="2.97" waitingTime="9.00" timeLoss="244.94" speed="12.51" speedRelative="0.79" departed="0" arrived="0" entered="537" left="537" laneChangedFrom="0" laneChangedTo="0"/>
        <edge id="-3221" sampledSeconds="4632.09" traveltime="8.27" overlapTraveltime="8.63" density="11.08" laneDensity="5.54" occupancy="2.64" waitingTime="0.00" timeLoss="478.81" speed="14.04" speedRelative="0.89" departed="0" arrived="0" entered="537" left="537" laneChangedFrom="75" laneChangedTo="75"/>
        <edge id="-323" sampledSeconds="88.74" traveltime="1.99" overlapTraveltime="2.51" density="1.55" laneDensity="1.55" occupancy="0.59" waitingTime="0.00" timeLoss="57.34" speed="8.35" speedRelative="0.36" departed="0" arrived="37" entered="37" left="0" laneChangedFrom="0" laneChangedTo="0"/>
        <edge id="-324" sampledSeconds="29521.87" traveltime="262.44" overlapTraveltime="264.17" density="73.44" laneDensity="36.72" occupancy="18.32" waitingTime="25992.00" timeLoss="28918.77" speed="0.44" speedRelative="0.02" departed="122" arrived="0" entered="0" left="110" laneChangedFrom="79" laneChangedTo="79" teleported="1"/>
        <edge id="-325" sampledSeconds="702.00" traveltime="31.33" overlapTraveltime="32.96" density="1.26" laneDensity="0.63" occupancy="0.31" waitingTime="320.00" timeLoss="550.56" speed="4.84" speedRelative="0.21" departed="22" arrived="0" entered="0" left="22" laneChangedFrom="1" laneChangedTo="1"/>
        <edge id="-326" sampledSeconds="16012.64" traveltime="49.61" overlapTraveltime="50.39" density="114.82" laneDensity="28.70" occupancy="14.17" waitingTime="12161.00" timeLoss="15299.24" speed="0.87" speedRelative="0.04" departed="363" arrived="0" entered="0" left="353" laneChangedFrom="421" laneChangedTo="421"/>
        <edge id="-327" sampledSeconds="723.74" traveltime="3.15" overlapTraveltime="3.50" density="4.58" laneDensity="2.29" occupancy="1.02" waitingTime="0.00" timeLoss="77.96" speed="13.97" speedRelative="0.89" departed="0" arrived="0" entered="207" left="207" laneChangedFrom="11" laneChangedTo="11"/>
        <edge id="-3271" sampledSeconds="843.60" traveltime="3.57" overlapTraveltime="4.09" density="9.66" laneDensity="3.22" occupancy="1.44" waitingTime="252.00" timeLoss="454.82" speed="7.16" speedRelative="0.45" departed="0" arrived="0" entered="207" left="207" laneChangedFrom="27" laneChangedTo="27"/>
        <edge id="-328" sampledSeconds="8624.75" traveltime="15.65" overlapTraveltime="16.66" density="68.02" laneDensity="17.01" occupancy="8.17" waitingTime="5302.00" timeLoss="7213.02" speed="2.41" speedRelative="0.15" departed="0" arrived="0" entered="518" left="517" laneChangedFrom="144" laneChangedTo="144"/>
        <edge id="-329" sampledSeconds="1151.79" traveltime="0.85" overlapTraveltime="1.45" density="51.36" laneDensity="51.36" occupancy="14.58" waitingTime="0.00" timeLoss="768.04" speed="7.75" speedRelative="0.33" departed="0" arrived="876" entered="876" left="0" laneChangedFrom="0" laneChangedTo="0"/>
        <edge id="-330" sampledSeconds="1810.09" traveltime="78.12" overlapTraveltime="29.30" density="80.71" laneDensity="80.71" occupancy="38.56" waitingTime="1398.00" timeLoss="1738.78" speed="0.38" speedRelative="0.02" departed="114" arrived="0" entered="0" left="113" laneChangedFrom="0" laneChangedTo="0"/>
        <edge id="-331" sampledSeconds="2064.93" traveltime="38.89" overlapTraveltime="40.62" density="2.38" laneDensity="2.38" occupancy="1.17" waitingTime="904.00" timeLoss="1501.47" speed="6.05" speedRelative="0.26" departed="52" arrived="0" entered="0" left="50" laneChangedFrom="0" laneChangedTo="0"/>
    </interval>
</meandata>
