<?xml version="1.0" encoding="UTF-8"?>

<!-- generated on 2025-03-03 16:36:20 by Eclipse SUMO sumo Version 1.21.0
<sumoConfiguration xmlns:xsi="http://www.w3.org/2001/XMLSchema-instance" xsi:noNamespaceSchemaLocation="http://sumo.dlr.de/xsd/sumoConfiguration.xsd">

    <input>
        <net-file value="chatt.net.xml"/>
        <route-files value="chatt.rou.xml"/>
        <additional-files value="updated_signal.xml,Edge.add.xml"/>
    </input>

    <output>
        <edgedata-output value="EdgeData.xml"/>
    </output>

    <time>
        <begin value="28800"/>
        <end value="32400"/>
        <step-length value="1"/>
    </time>

    <report>
        <no-warnings value="true"/>
        <no-step-log value="true"/>
    </report>

    <random_number>
        <seed value="101"/>
    </random_number>

    <gui_only>
        <start value="t"/>
    </gui_only>

</sumoConfiguration>
-->

<meandata xmlns:xsi="http://www.w3.org/2001/XMLSchema-instance" xsi:noNamespaceSchemaLocation="http://sumo.dlr.de/xsd/meandata_file.xsd">
    <interval begin="28800.00" end="32400.00" id="1">
        <edge id="-280" sampledSeconds="14032.86" traveltime="17.33" overlapTraveltime="18.03" density="84.68" laneDensity="28.23" occupancy="13.63" waitingTime="7594.00" timeLoss="11495.81" speed="2.83" speedRelative="0.18" departed="0" arrived="0" entered="780" left="777" laneChangedFrom="50" laneChangedTo="50"/>
        <edge id="-2801" sampledSeconds="26356.96" traveltime="33.52" overlapTraveltime="34.20" density="20.56" laneDensity="10.28" occupancy="5.08" waitingTime="1481.70" timeLoss="8488.64" speed="10.56" speedRelative="0.67" departed="785" arrived="0" entered="0" left="780" laneChangedFrom="238" laneChangedTo="238"/>
        <edge id="-281" sampledSeconds="15175.92" traveltime="29.89" overlapTraveltime="30.93" density="89.14" laneDensity="22.29" occupancy="10.69" waitingTime="7654.00" timeLoss="13576.96" speed="1.69" speedRelative="0.11" departed="0" arrived="0" entered="493" left="488" laneChangedFrom="225" laneChangedTo="225"/>
        <edge id="-282" sampledSeconds="119.85" traveltime="3.44" overlapTraveltime="4.00" density="1.48" laneDensity="1.48" occupancy="0.58" waitingTime="0.00" timeLoss="84.61" speed="6.87" speedRelative="0.29" departed="0" arrived="31" entered="31" left="0" laneChangedFrom="0" laneChangedTo="0"/>
        <edge id="-283" sampledSeconds="547.40" traveltime="7.70" overlapTraveltime="8.00" density="1.70" laneDensity="1.70" occupancy="0.78" waitingTime="0.00" timeLoss="267.50" speed="11.81" speedRelative="0.51" departed="0" arrived="69" entered="69" left="0" laneChangedFrom="0" laneChangedTo="0"/>
        <edge id="-284" sampledSeconds="8089.06" traveltime="18.39" overlapTraveltime="19.40" density="24.03" laneDensity="8.01" occupancy="3.85" waitingTime="2587.00" timeLoss="5484.08" speed="5.08" speedRelative="0.32" departed="0" arrived="0" entered="419" left="419" laneChangedFrom="65" laneChangedTo="65" teleported="2"/>
        <edge id="-285" sampledSeconds="10511.14" traveltime="24.94" overlapTraveltime="25.89" density="44.46" laneDensity="11.12" occupancy="5.44" waitingTime="6685.00" timeLoss="8916.93" speed="2.73" speedRelative="0.15" departed="0" arrived="0" entered="408" left="400" laneChangedFrom="141" laneChangedTo="141"/>
        <edge id="-2851" sampledSeconds="4185.61" traveltime="9.92" overlapTraveltime="10.23" density="9.05" laneDensity="3.02" occupancy="1.42" waitingTime="1.00" timeLoss="1097.53" speed="13.04" speedRelative="0.73" departed="0" arrived="0" entered="410" left="408" laneChangedFrom="196" laneChangedTo="196"/>
        <edge id="-286" sampledSeconds="14871.18" traveltime="11.81" overlapTraveltime="12.40" density="45.60" laneDensity="9.12" occupancy="4.30" waitingTime="2341.00" timeLoss="7558.88" speed="7.71" speedRelative="0.49" departed="0" arrived="0" entered="1200" left="1199" laneChangedFrom="409" laneChangedTo="409"/>
        <edge id="-287" sampledSeconds="3739.95" traveltime="21.80" overlapTraveltime="22.03" density="2.68" laneDensity="1.34" occupancy="0.65" waitingTime="1.00" timeLoss="848.94" speed="17.83" speedRelative="0.76" departed="0" arrived="170" entered="170" left="0" laneChangedFrom="16" laneChangedTo="16"/>
        <edge id="-288" sampledSeconds="21306.15" traveltime="25.50" overlapTraveltime="26.15" density="30.49" laneDensity="10.16" occupancy="4.94" waitingTime="4624.00" timeLoss="12126.65" speed="7.61" speedRelative="0.43" departed="0" arrived="0" entered="817" left="801" laneChangedFrom="453" laneChangedTo="453"/>
        <edge id="-289" sampledSeconds="3836.91" traveltime="17.81" overlapTraveltime="18.05" density="3.49" laneDensity="1.75" occupancy="0.84" waitingTime="0.00" timeLoss="978.95" speed="17.19" speedRelative="0.74" departed="0" arrived="213" entered="214" left="1" laneChangedFrom="10" laneChangedTo="10" teleported="1"/>
        <edge id="-290" sampledSeconds="3506.21" traveltime="6.12" overlapTraveltime="6.88" density="23.99" laneDensity="8.00" occupancy="3.40" waitingTime="72.00" timeLoss="2346.26" speed="6.62" speedRelative="0.33" departed="0" arrived="0" entered="523" left="523" laneChangedFrom="99" laneChangedTo="99" teleported="14"/>
        <edge id="-291" sampledSeconds="0.00" departed="0" arrived="0" entered="0" left="0" laneChangedFrom="0" laneChangedTo="0"/>
        <edge id="-292" sampledSeconds="34777.65" traveltime="50.04" overlapTraveltime="51.13" density="25.92" laneDensity="8.64" occupancy="4.28" waitingTime="12244.00" timeLoss="23632.50" speed="7.39" speedRelative="0.32" departed="693" arrived="0" entered="0" left="687" laneChangedFrom="628" laneChangedTo="628"/>
        <edge id="-293" sampledSeconds="5636.89" traveltime="8.53" overlapTraveltime="9.18" density="18.09" laneDensity="9.04" occupancy="4.15" waitingTime="58.00" timeLoss="2861.68" speed="9.97" speedRelative="0.49" departed="0" arrived="0" entered="616" left="615" laneChangedFrom="134" laneChangedTo="134" teleported="2"/>
        <edge id="-294" sampledSeconds="754.04" traveltime="23.34" overlapTraveltime="23.58" density="0.52" laneDensity="0.52" occupancy="0.25" waitingTime="0.00" timeLoss="178.30" speed="17.41" speedRelative="0.75" departed="0" arrived="32" entered="32" left="0" laneChangedFrom="0" laneChangedTo="0"/>
        <edge id="-295" sampledSeconds="936.84" traveltime="1.77" overlapTraveltime="2.09" density="11.56" laneDensity="5.78" occupancy="2.34" waitingTime="0.00" timeLoss="322.02" speed="13.14" speedRelative="0.65" departed="0" arrived="465" entered="467" left="2" laneChangedFrom="2" laneChangedTo="2" teleported="2"/>
        <edge id="-296" sampledSeconds="727.47" traveltime="9.23" overlapTraveltime="9.49" density="1.65" laneDensity="1.65" occupancy="0.77" waitingTime="0.00" timeLoss="305.94" speed="13.45" speedRelative="0.58" departed="0" arrived="77" entered="77" left="0" laneChangedFrom="0" laneChangedTo="0"/>
        <edge id="-297" sampledSeconds="8674.54" traveltime="17.69" overlapTraveltime="18.41" density="59.36" laneDensity="29.68" occupancy="14.25" waitingTime="4868.00" timeLoss="7584.95" speed="2.48" speedRelative="0.12" departed="0" arrived="0" entered="474" left="467" laneChangedFrom="68" laneChangedTo="68"/>
        <edge id="-298" sampledSeconds="4556.59" traveltime="8.62" overlapTraveltime="9.13" density="14.62" laneDensity="4.87" occupancy="2.28" waitingTime="487.00" timeLoss="2275.27" speed="10.03" speedRelative="0.50" departed="0" arrived="0" entered="500" left="492" laneChangedFrom="46" laneChangedTo="46"/>
        <edge id="-299" sampledSeconds="3406.24" traveltime="12.40" overlapTraveltime="12.62" density="3.82" laneDensity="3.82" occupancy="1.86" waitingTime="0.00" timeLoss="492.96" speed="19.99" speedRelative="0.86" departed="0" arrived="270" entered="272" left="0" laneChangedFrom="0" laneChangedTo="0"/>
        <edge id="-300" sampledSeconds="7634.95" traveltime="32.93" overlapTraveltime="34.10" density="23.41" laneDensity="5.85" occupancy="2.84" waitingTime="4825.00" timeLoss="6269.11" speed="2.80" speedRelative="0.18" departed="0" arrived="0" entered="224" left="222" laneChangedFrom="207" laneChangedTo="207"/>
        <edge id="-301" sampledSeconds="336.77" traveltime="7.96" overlapTraveltime="8.25" density="1.07" laneDensity="0.53" occupancy="0.24" waitingTime="0.00" timeLoss="178.08" speed="11.24" speedRelative="0.48" departed="0" arrived="41" entered="41" left="0" laneChangedFrom="0" laneChangedTo="0"/>
        <edge id="-302" sampledSeconds="5522.25" traveltime="4.31" overlapTraveltime="4.91" density="42.99" laneDensity="21.50" occupancy="9.43" waitingTime="37.00" timeLoss="2719.29" speed="8.28" speedRelative="0.53" departed="0" arrived="0" entered="1126" left="1123" laneChangedFrom="31" laneChangedTo="31"/>
        <edge id="-303" sampledSeconds="1136.26" traveltime="11.64" overlapTraveltime="11.88" density="1.80" laneDensity="1.80" occupancy="0.86" waitingTime="0.00" timeLoss="394.77" speed="15.14" speedRelative="0.65" departed="0" arrived="96" entered="96" left="0" laneChangedFrom="0" laneChangedTo="0"/>
        <edge id="-304" sampledSeconds="6660.13" traveltime="29.52" overlapTraveltime="29.86" density="4.60" laneDensity="2.30" occupancy="1.12" waitingTime="0.00" timeLoss="890.58" speed="13.65" speedRelative="0.87" departed="0" arrived="219" entered="234" left="1" laneChangedFrom="72" laneChangedTo="72" teleported="1"/>
        <edge id="-305" sampledSeconds="7528.75" traveltime="25.56" overlapTraveltime="25.83" density="5.11" laneDensity="2.55" occupancy="1.24" waitingTime="0.00" timeLoss="1483.26" speed="16.04" speedRelative="0.79" departed="0" arrived="292" entered="292" left="0" laneChangedFrom="45" laneChangedTo="45"/>
        <edge id="-306" sampledSeconds="1404.11" traveltime="5.35" overlapTraveltime="5.72" density="7.23" laneDensity="7.23" occupancy="3.22" waitingTime="0.00" timeLoss="780.16" speed="10.31" speedRelative="0.44" departed="0" arrived="249" entered="250" left="0" laneChangedFrom="0" laneChangedTo="0"/>
        <edge id="-307" sampledSeconds="7551.83" traveltime="6.75" overlapTraveltime="7.27" density="34.42" laneDensity="11.47" occupancy="5.12" waitingTime="103.00" timeLoss="3317.59" speed="9.07" speedRelative="0.58" departed="0" arrived="0" entered="1063" left="1061" laneChangedFrom="320" laneChangedTo="320" teleported="24"/>
        <edge id="-308" sampledSeconds="29354.55" traveltime="70.58" overlapTraveltime="71.58" density="19.92" laneDensity="6.64" occupancy="3.30" waitingTime="14531.00" timeLoss="20866.85" speed="5.79" speedRelative="0.29" departed="417" arrived="0" entered="0" left="409" laneChangedFrom="388" laneChangedTo="388"/>
        <edge id="-309" sampledSeconds="2410.73" traveltime="55.25" overlapTraveltime="56.79" density="1.65" laneDensity="0.83" occupancy="0.41" waitingTime="1131.00" timeLoss="1662.88" speed="7.23" speedRelative="0.31" departed="43" arrived="0" entered="0" left="42" laneChangedFrom="30" laneChangedTo="30"/>
        <edge id="-310" sampledSeconds="54552.83" traveltime="71.53" overlapTraveltime="72.40" density="28.57" laneDensity="7.14" occupancy="3.55" waitingTime="15065.00" timeLoss="37090.76" speed="7.40" speedRelative="0.32" departed="765" arrived="0" entered="0" left="757" laneChangedFrom="1925" laneChangedTo="1925"/>
        <edge id="-311" sampledSeconds="0.00" departed="0" arrived="0" entered="0" left="0" laneChangedFrom="0" laneChangedTo="0"/>
        <edge id="-312" sampledSeconds="3848.67" traveltime="8.40" overlapTraveltime="8.91" density="47.49" laneDensity="15.83" occupancy="7.53" waitingTime="826.00" timeLoss="3258.34" speed="3.09" speedRelative="0.15" departed="531" arrived="0" entered="0" left="530" laneChangedFrom="84" laneChangedTo="84"/>
        <edge id="-313" sampledSeconds="3496.88" traveltime="6.89" overlapTraveltime="7.46" density="20.54" laneDensity="6.85" occupancy="3.12" waitingTime="690.00" timeLoss="1941.47" speed="7.01" speedRelative="0.45" departed="0" arrived="0" entered="470" left="467" laneChangedFrom="24" laneChangedTo="24"/>
        <edge id="-314" sampledSeconds="1732.93" traveltime="2.71" overlapTraveltime="3.18" density="21.69" laneDensity="21.69" occupancy="8.65" waitingTime="0.00" timeLoss="1089.16" speed="8.55" speedRelative="0.37" departed="0" arrived="571" entered="571" left="0" laneChangedFrom="0" laneChangedTo="0"/>
        <edge id="-315" sampledSeconds="2677.56" traveltime="20.24" overlapTraveltime="21.20" density="4.46" laneDensity="0.89" occupancy="0.43" waitingTime="700.00" timeLoss="1279.69" speed="8.10" speedRelative="0.51" departed="0" arrived="0" entered="127" left="126" laneChangedFrom="77" laneChangedTo="77"/>
        <edge id="-316" sampledSeconds="170.68" traveltime="5.34" overlapTraveltime="5.84" density="2.14" laneDensity="2.14" occupancy="1.00" waitingTime="0.00" timeLoss="129.83" speed="4.66" speedRelative="0.20" departed="36" arrived="0" entered="0" left="36" laneChangedFrom="0" laneChangedTo="0"/>
        <edge id="-317" sampledSeconds="4352.22" traveltime="113.22" overlapTraveltime="115.62" density="53.85" laneDensity="26.93" occupancy="13.39" waitingTime="3909.00" timeLoss="4301.80" speed="0.24" speedRelative="0.01" departed="49" arrived="0" entered="0" left="49" laneChangedFrom="34" laneChangedTo="34"/>
        <edge id="-318" sampledSeconds="4182.64" traveltime="40.31" overlapTraveltime="42.44" density="12.98" laneDensity="6.49" occupancy="3.22" waitingTime="2618.00" timeLoss="3771.42" speed="2.23" speedRelative="0.10" departed="107" arrived="0" entered="0" left="106" laneChangedFrom="10" laneChangedTo="10" teleported="1"/>
        <edge id="-319" sampledSeconds="8074.35" traveltime="50.19" overlapTraveltime="51.39" density="25.56" laneDensity="8.52" occupancy="4.22" waitingTime="5439.00" timeLoss="7425.92" speed="1.80" speedRelative="0.08" departed="167" arrived="0" entered="0" left="166" laneChangedFrom="254" laneChangedTo="254"/>
        <edge id="-320" sampledSeconds="258.73" traveltime="5.55" overlapTraveltime="6.02" density="2.95" laneDensity="2.95" occupancy="1.39" waitingTime="0.00" timeLoss="194.36" speed="4.88" speedRelative="0.21" departed="52" arrived="0" entered="0" left="52" laneChangedFrom="0" laneChangedTo="0"/>
        <edge id="-321" sampledSeconds="1229.07" traveltime="11.64" overlapTraveltime="12.29" density="9.57" laneDensity="1.91" occupancy="0.91" waitingTime="702.00" timeLoss="968.66" speed="3.31" speedRelative="0.21" departed="0" arrived="0" entered="100" left="100" laneChangedFrom="22" laneChangedTo="22"/>
        <edge id="-322" sampledSeconds="3179.46" traveltime="4.29" overlapTraveltime="4.93" density="20.14" laneDensity="10.07" occupancy="4.53" waitingTime="27.00" timeLoss="1206.80" speed="9.90" speedRelative="0.63" departed="0" arrived="0" entered="645" left="644" laneChangedFrom="18" laneChangedTo="18"/>
        <edge id="-3221" sampledSeconds="6664.41" traveltime="9.97" overlapTraveltime="10.32" density="15.06" laneDensity="7.53" occupancy="3.56" waitingTime="0.00" timeLoss="1370.89" speed="12.39" speedRelative="0.79" departed="0" arrived="0" entered="648" left="645" laneChangedFrom="162" laneChangedTo="162"/>
        <edge id="-323" sampledSeconds="1262.66" traveltime="2.01" overlapTraveltime="2.36" density="14.37" laneDensity="14.37" occupancy="5.97" waitingTime="0.00" timeLoss="584.78" speed="12.47" speedRelative="0.53" departed="0" arrived="553" entered="553" left="0" laneChangedFrom="0" laneChangedTo="0"/>
        <edge id="-324" sampledSeconds="5917.55" traveltime="49.45" overlapTraveltime="50.65" density="13.40" laneDensity="6.70" occupancy="3.32" waitingTime="3764.00" timeLoss="5267.51" speed="2.52" speedRelative="0.11" departed="122" arrived="0" entered="0" left="121" laneChangedFrom="90" laneChangedTo="90"/>
        <edge id="-325" sampledSeconds="797.34" traveltime="36.09" overlapTraveltime="37.76" density="1.27" laneDensity="0.63" occupancy="0.31" waitingTime="387.00" timeLoss="630.77" speed="4.76" speedRelative="0.20" departed="22" arrived="0" entered="0" left="22" laneChangedFrom="2" laneChangedTo="2"/>
        <edge id="-326" sampledSeconds="13556.30" traveltime="39.95" overlapTraveltime="41.27" density="69.82" laneDensity="17.46" occupancy="8.61" waitingTime="9012.00" timeLoss="12684.01" speed="1.43" speedRelative="0.06" departed="363" arrived="0" entered="0" left="361" laneChangedFrom="434" laneChangedTo="434"/>
        <edge id="-327" sampledSeconds="9356.83" traveltime="22.62" overlapTraveltime="23.84" density="27.80" laneDensity="9.27" occupancy="4.43" waitingTime="2543.00" timeLoss="6872.23" speed="4.13" speedRelative="0.26" departed="0" arrived="0" entered="394" left="390" laneChangedFrom="129" laneChangedTo="129"/>
        <edge id="-328" sampledSeconds="7482.26" traveltime="24.31" overlapTraveltime="25.56" density="34.10" laneDensity="8.53" occupancy="4.11" waitingTime="4377.00" timeLoss="6256.48" speed="2.58" speedRelative="0.16" departed="0" arrived="0" entered="293" left="292" laneChangedFrom="95" laneChangedTo="95"/>
        <edge id="-329" sampledSeconds="1546.11" traveltime="1.49" overlapTraveltime="1.87" density="25.95" laneDensity="25.95" occupancy="9.90" waitingTime="0.00" timeLoss="771.96" speed="11.55" speedRelative="0.49" departed="0" arrived="877" entered="877" left="0" laneChangedFrom="0" laneChangedTo="0"/>
        <edge id="-330" sampledSeconds="320.97" traveltime="4.64" overlapTraveltime="5.29" density="5.39" laneDensity="5.39" occupancy="2.50" waitingTime="0.00" timeLoss="252.11" speed="4.08" speedRelative="0.17" departed="84" arrived="0" entered="0" left="84" laneChangedFrom="0" laneChangedTo="0"/>
        <edge id="-331" sampledSeconds="1937.35" traveltime="17.93" overlapTraveltime="18.32" density="2.18" laneDensity="2.18" occupancy="1.08" waitingTime="0.00" timeLoss="780.57" speed="13.78" speedRelative="0.59" departed="108" arrived="0" entered="0" left="108" laneChangedFrom="0" laneChangedTo="0"/>
    </interval>
</meandata>
