<?xml version="1.0" encoding="UTF-8"?>

<!-- generated on 2025-03-06 17:24:00 by Eclipse SUMO sumo Version 1.21.0
<sumoConfiguration xmlns:xsi="http://www.w3.org/2001/XMLSchema-instance" xsi:noNamespaceSchemaLocation="http://sumo.dlr.de/xsd/sumoConfiguration.xsd">

    <input>
        <net-file value="chatt.net.xml"/>
        <route-files value="chatt.rou.xml"/>
        <additional-files value="updated_signal.xml,Edge.add.xml"/>
    </input>

    <output>
        <edgedata-output value="EdgeData.xml"/>
    </output>

    <time>
        <begin value="28800"/>
        <end value="32400"/>
        <step-length value="1"/>
    </time>

    <report>
        <no-warnings value="true"/>
        <no-step-log value="true"/>
    </report>

    <random_number>
        <seed value="101"/>
    </random_number>

    <gui_only>
        <start value="t"/>
    </gui_only>

</sumoConfiguration>
-->

<meandata xmlns:xsi="http://www.w3.org/2001/XMLSchema-instance" xsi:noNamespaceSchemaLocation="http://sumo.dlr.de/xsd/meandata_file.xsd">
    <interval begin="28800.00" end="32400.00" id="1">
        <edge id="-280" sampledSeconds="10852.33" traveltime="13.39" overlapTraveltime="13.92" density="65.49" laneDensity="21.83" occupancy="10.55" waitingTime="6301.00" timeLoss="8311.05" speed="3.67" speedRelative="0.23" departed="0" arrived="0" entered="780" left="780" laneChangedFrom="40" laneChangedTo="40"/>
        <edge id="-2801" sampledSeconds="21625.58" traveltime="27.60" overlapTraveltime="28.04" density="16.87" laneDensity="8.44" occupancy="4.18" waitingTime="858.00" timeLoss="3744.08" speed="12.88" speedRelative="0.82" departed="785" arrived="0" entered="0" left="780" laneChangedFrom="233" laneChangedTo="233"/>
        <edge id="-281" sampledSeconds="9616.05" traveltime="18.63" overlapTraveltime="19.38" density="56.48" laneDensity="14.12" occupancy="6.77" waitingTime="4972.00" timeLoss="8001.41" speed="2.70" speedRelative="0.17" departed="0" arrived="0" entered="497" left="494" laneChangedFrom="205" laneChangedTo="205"/>
        <edge id="-282" sampledSeconds="97.78" traveltime="2.77" overlapTraveltime="3.18" density="1.21" laneDensity="1.21" occupancy="0.47" waitingTime="0.00" timeLoss="61.74" speed="8.63" speedRelative="0.37" departed="0" arrived="31" entered="31" left="0" laneChangedFrom="0" laneChangedTo="0"/>
        <edge id="-283" sampledSeconds="457.60" traveltime="6.35" overlapTraveltime="6.59" density="1.42" laneDensity="1.42" occupancy="0.65" waitingTime="0.00" timeLoss="173.87" speed="14.34" speedRelative="0.61" departed="0" arrived="70" entered="70" left="0" laneChangedFrom="0" laneChangedTo="0"/>
        <edge id="-284" sampledSeconds="6100.59" traveltime="13.67" overlapTraveltime="14.42" density="18.13" laneDensity="6.04" occupancy="2.90" waitingTime="1916.00" timeLoss="3456.22" speed="6.83" speedRelative="0.43" departed="0" arrived="0" entered="423" left="423" laneChangedFrom="60" laneChangedTo="61"/>
        <edge id="-285" sampledSeconds="10375.22" traveltime="24.75" overlapTraveltime="25.53" density="43.89" laneDensity="10.97" occupancy="5.39" waitingTime="7147.00" timeLoss="8777.24" speed="2.77" speedRelative="0.15" departed="0" arrived="0" entered="408" left="406" laneChangedFrom="132" laneChangedTo="132"/>
        <edge id="-2851" sampledSeconds="3658.09" traveltime="8.64" overlapTraveltime="8.94" density="7.91" laneDensity="2.64" occupancy="1.24" waitingTime="0.00" timeLoss="573.69" speed="14.92" speedRelative="0.83" departed="0" arrived="0" entered="410" left="408" laneChangedFrom="196" laneChangedTo="196"/>
        <edge id="-286" sampledSeconds="12182.20" traveltime="9.57" overlapTraveltime="10.07" density="37.36" laneDensity="7.47" occupancy="3.53" waitingTime="1726.00" timeLoss="4811.15" speed="9.49" speedRelative="0.60" departed="0" arrived="0" entered="1212" left="1207" laneChangedFrom="383" laneChangedTo="383"/>
        <edge id="-287" sampledSeconds="3337.04" traveltime="19.32" overlapTraveltime="19.54" density="2.39" laneDensity="1.19" occupancy="0.58" waitingTime="0.00" timeLoss="426.02" speed="20.11" speedRelative="0.86" departed="0" arrived="170" entered="174" left="0" laneChangedFrom="11" laneChangedTo="11"/>
        <edge id="-288" sampledSeconds="17274.28" traveltime="20.61" overlapTraveltime="21.12" density="24.72" laneDensity="8.24" occupancy="4.01" waitingTime="4165.00" timeLoss="8055.65" speed="9.43" speedRelative="0.53" departed="0" arrived="0" entered="818" left="818" laneChangedFrom="441" laneChangedTo="441"/>
        <edge id="-289" sampledSeconds="3333.37" traveltime="15.52" overlapTraveltime="15.74" density="3.03" laneDensity="1.52" occupancy="0.73" waitingTime="0.00" timeLoss="488.74" speed="19.71" speedRelative="0.84" departed="0" arrived="212" entered="218" left="3" laneChangedFrom="8" laneChangedTo="8" teleported="3"/>
        <edge id="-290" sampledSeconds="3023.11" traveltime="5.45" overlapTraveltime="6.02" density="20.69" laneDensity="6.90" occupancy="2.98" waitingTime="187.00" timeLoss="1879.60" speed="7.57" speedRelative="0.37" departed="0" arrived="0" entered="526" left="522" laneChangedFrom="81" laneChangedTo="81" teleported="22"/>
        <edge id="-291" sampledSeconds="0.00" departed="0" arrived="0" entered="0" left="0" laneChangedFrom="0" laneChangedTo="0"/>
        <edge id="-292" sampledSeconds="31297.58" traveltime="45.12" overlapTraveltime="45.95" density="23.33" laneDensity="7.78" occupancy="3.86" waitingTime="13172.00" timeLoss="20136.21" speed="8.22" speedRelative="0.35" departed="693" arrived="0" entered="0" left="688" laneChangedFrom="621" laneChangedTo="621"/>
        <edge id="-293" sampledSeconds="4774.15" traveltime="7.20" overlapTraveltime="7.75" density="15.32" laneDensity="7.66" occupancy="3.54" waitingTime="104.00" timeLoss="1986.55" speed="11.82" speedRelative="0.58" departed="0" arrived="0" entered="617" left="616" laneChangedFrom="133" laneChangedTo="133"/>
        <edge id="-294" sampledSeconds="658.48" traveltime="20.37" overlapTraveltime="20.60" density="0.45" laneDensity="0.45" occupancy="0.22" waitingTime="0.00" timeLoss="82.98" speed="19.93" speedRelative="0.85" departed="0" arrived="32" entered="32" left="0" laneChangedFrom="0" laneChangedTo="0"/>
        <edge id="-295" sampledSeconds="788.52" traveltime="1.45" overlapTraveltime="1.74" density="9.73" laneDensity="4.87" occupancy="1.96" waitingTime="0.00" timeLoss="164.62" speed="15.83" speedRelative="0.78" departed="0" arrived="466" entered="466" left="0" laneChangedFrom="1" laneChangedTo="1"/>
        <edge id="-296" sampledSeconds="584.16" traveltime="7.40" overlapTraveltime="7.62" density="1.32" laneDensity="1.32" occupancy="0.62" waitingTime="0.00" timeLoss="162.93" speed="16.74" speedRelative="0.72" departed="0" arrived="77" entered="77" left="0" laneChangedFrom="0" laneChangedTo="0"/>
        <edge id="-297" sampledSeconds="6672.56" traveltime="13.60" overlapTraveltime="14.14" density="45.66" laneDensity="22.83" occupancy="10.96" waitingTime="4000.00" timeLoss="5576.81" speed="3.23" speedRelative="0.16" departed="0" arrived="0" entered="474" left="468" laneChangedFrom="76" laneChangedTo="76"/>
        <edge id="-298" sampledSeconds="3422.13" traveltime="6.51" overlapTraveltime="6.89" density="10.98" laneDensity="3.66" occupancy="1.71" waitingTime="258.00" timeLoss="1151.45" speed="13.29" speedRelative="0.66" departed="0" arrived="0" entered="499" left="491" laneChangedFrom="41" laneChangedTo="41"/>
        <edge id="-299" sampledSeconds="3132.13" traveltime="11.33" overlapTraveltime="11.55" density="3.52" laneDensity="3.52" occupancy="1.71" waitingTime="0.00" timeLoss="202.51" speed="21.86" speedRelative="0.94" departed="0" arrived="271" entered="273" left="0" laneChangedFrom="0" laneChangedTo="0"/>
        <edge id="-300" sampledSeconds="6490.86" traveltime="28.09" overlapTraveltime="28.98" density="19.91" laneDensity="4.98" occupancy="2.42" waitingTime="4218.00" timeLoss="5124.12" speed="3.30" speedRelative="0.21" departed="0" arrived="0" entered="224" left="224" laneChangedFrom="194" laneChangedTo="194"/>
        <edge id="-301" sampledSeconds="252.05" traveltime="5.95" overlapTraveltime="6.18" density="0.80" laneDensity="0.40" occupancy="0.18" waitingTime="0.00" timeLoss="93.44" speed="15.01" speedRelative="0.64" departed="0" arrived="41" entered="41" left="0" laneChangedFrom="0" laneChangedTo="0"/>
        <edge id="-302" sampledSeconds="4842.38" traveltime="3.79" overlapTraveltime="4.28" density="37.70" laneDensity="18.85" occupancy="8.32" waitingTime="59.00" timeLoss="2027.92" speed="9.51" speedRelative="0.60" departed="0" arrived="0" entered="1132" left="1131" laneChangedFrom="30" laneChangedTo="30"/>
        <edge id="-303" sampledSeconds="979.31" traveltime="9.92" overlapTraveltime="10.14" density="1.56" laneDensity="1.56" occupancy="0.74" waitingTime="0.00" timeLoss="230.80" speed="17.74" speedRelative="0.76" departed="0" arrived="96" entered="98" left="0" laneChangedFrom="0" laneChangedTo="0"/>
        <edge id="-304" sampledSeconds="6267.97" traveltime="27.02" overlapTraveltime="27.34" density="4.33" laneDensity="2.16" occupancy="1.06" waitingTime="0.00" timeLoss="340.37" speed="14.90" speedRelative="0.95" departed="0" arrived="228" entered="234" left="0" laneChangedFrom="60" laneChangedTo="60"/>
        <edge id="-305" sampledSeconds="6902.30" traveltime="23.25" overlapTraveltime="23.51" density="4.68" laneDensity="2.34" occupancy="1.14" waitingTime="0.00" timeLoss="809.11" speed="17.62" speedRelative="0.87" departed="0" arrived="294" entered="295" left="0" laneChangedFrom="33" laneChangedTo="33"/>
        <edge id="-306" sampledSeconds="1072.68" traveltime="4.05" overlapTraveltime="4.33" density="5.53" laneDensity="5.53" occupancy="2.46" waitingTime="0.00" timeLoss="443.38" speed="13.62" speedRelative="0.58" departed="0" arrived="251" entered="251" left="0" laneChangedFrom="0" laneChangedTo="0"/>
        <edge id="-307" sampledSeconds="6354.83" traveltime="5.62" overlapTraveltime="6.04" density="28.96" laneDensity="9.65" occupancy="4.36" waitingTime="32.00" timeLoss="2057.36" speed="10.91" speedRelative="0.69" departed="0" arrived="0" entered="1066" left="1062" laneChangedFrom="311" laneChangedTo="311" teleported="13"/>
        <edge id="-308" sampledSeconds="27337.96" traveltime="65.82" overlapTraveltime="66.58" density="18.55" laneDensity="6.18" occupancy="3.08" waitingTime="15052.00" timeLoss="18840.99" speed="6.22" speedRelative="0.31" departed="417" arrived="0" entered="0" left="409" laneChangedFrom="393" laneChangedTo="393"/>
        <edge id="-309" sampledSeconds="2322.92" traveltime="53.57" overlapTraveltime="54.72" density="1.59" laneDensity="0.80" occupancy="0.39" waitingTime="1233.00" timeLoss="1575.01" speed="7.50" speedRelative="0.32" departed="43" arrived="0" entered="0" left="42" laneChangedFrom="30" laneChangedTo="30"/>
        <edge id="-310" sampledSeconds="45185.95" traveltime="59.25" overlapTraveltime="59.91" density="23.66" laneDensity="5.92" occupancy="2.94" waitingTime="17056.00" timeLoss="27702.63" speed="8.94" speedRelative="0.38" departed="765" arrived="0" entered="0" left="754" laneChangedFrom="1890" laneChangedTo="1890"/>
        <edge id="-311" sampledSeconds="0.00" departed="0" arrived="0" entered="0" left="0" laneChangedFrom="0" laneChangedTo="0"/>
        <edge id="-312" sampledSeconds="2961.05" traveltime="6.51" overlapTraveltime="6.85" density="36.54" laneDensity="12.18" occupancy="5.81" waitingTime="824.00" timeLoss="2369.65" speed="4.02" speedRelative="0.20" departed="531" arrived="0" entered="0" left="531" laneChangedFrom="70" laneChangedTo="70"/>
        <edge id="-313" sampledSeconds="2717.14" traveltime="5.30" overlapTraveltime="5.77" density="15.96" laneDensity="5.32" occupancy="2.42" waitingTime="419.00" timeLoss="1153.03" speed="9.06" speedRelative="0.58" departed="0" arrived="0" entered="471" left="471" laneChangedFrom="26" laneChangedTo="26"/>
        <edge id="-314" sampledSeconds="1388.10" traveltime="2.07" overlapTraveltime="2.41" density="17.38" laneDensity="17.38" occupancy="6.88" waitingTime="0.00" timeLoss="708.93" speed="11.26" speedRelative="0.48" departed="0" arrived="580" entered="581" left="0" laneChangedFrom="0" laneChangedTo="0"/>
        <edge id="-315" sampledSeconds="2300.86" traveltime="17.48" overlapTraveltime="18.18" density="3.83" laneDensity="0.77" occupancy="0.37" waitingTime="571.00" timeLoss="900.50" speed="9.45" speedRelative="0.60" departed="0" arrived="0" entered="127" left="126" laneChangedFrom="70" laneChangedTo="70"/>
        <edge id="-316" sampledSeconds="123.76" traveltime="3.89" overlapTraveltime="4.23" density="1.55" laneDensity="1.55" occupancy="0.73" waitingTime="0.00" timeLoss="82.46" speed="6.43" speedRelative="0.28" departed="36" arrived="0" entered="0" left="36" laneChangedFrom="0" laneChangedTo="0"/>
        <edge id="-317" sampledSeconds="4578.39" traveltime="119.66" overlapTraveltime="118.57" density="56.65" laneDensity="28.32" occupancy="14.10" waitingTime="4259.00" timeLoss="4526.59" speed="0.23" speedRelative="0.01" departed="49" arrived="0" entered="0" left="49" laneChangedFrom="34" laneChangedTo="34"/>
        <edge id="-318" sampledSeconds="3690.56" traveltime="35.58" overlapTraveltime="37.06" density="11.45" laneDensity="5.73" occupancy="2.84" waitingTime="2498.00" timeLoss="3273.20" speed="2.55" speedRelative="0.11" departed="107" arrived="0" entered="0" left="107" laneChangedFrom="10" laneChangedTo="10" teleported="1"/>
        <edge id="-319" sampledSeconds="7258.11" traveltime="45.27" overlapTraveltime="46.08" density="22.98" laneDensity="7.66" occupancy="3.80" waitingTime="5361.00" timeLoss="6609.04" speed="2.01" speedRelative="0.09" departed="167" arrived="0" entered="0" left="166" laneChangedFrom="254" laneChangedTo="254"/>
        <edge id="-320" sampledSeconds="188.70" traveltime="4.03" overlapTraveltime="4.39" density="2.15" laneDensity="2.15" occupancy="1.01" waitingTime="0.00" timeLoss="125.57" speed="6.70" speedRelative="0.29" departed="52" arrived="0" entered="0" left="52" laneChangedFrom="0" laneChangedTo="0"/>
        <edge id="-321" sampledSeconds="1250.39" traveltime="11.92" overlapTraveltime="12.50" density="9.73" laneDensity="1.95" occupancy="0.93" waitingTime="819.00" timeLoss="989.84" speed="3.25" speedRelative="0.21" departed="0" arrived="0" entered="100" left="100" laneChangedFrom="19" laneChangedTo="19"/>
        <edge id="-322" sampledSeconds="2979.62" traveltime="4.05" overlapTraveltime="4.58" density="18.88" laneDensity="9.44" occupancy="4.28" waitingTime="36.00" timeLoss="990.97" speed="10.66" speedRelative="0.68" departed="0" arrived="0" entered="651" left="649" laneChangedFrom="24" laneChangedTo="24"/>
        <edge id="-3221" sampledSeconds="5969.25" traveltime="8.82" overlapTraveltime="9.16" density="13.49" laneDensity="6.74" occupancy="3.20" waitingTime="0.00" timeLoss="630.14" speed="13.96" speedRelative="0.89" departed="0" arrived="0" entered="652" left="651" laneChangedFrom="155" laneChangedTo="155"/>
        <edge id="-323" sampledSeconds="1025.40" traveltime="1.61" overlapTraveltime="1.90" density="11.67" laneDensity="11.67" occupancy="4.87" waitingTime="0.00" timeLoss="341.48" speed="15.49" speedRelative="0.66" departed="0" arrived="557" entered="557" left="0" laneChangedFrom="0" laneChangedTo="0"/>
        <edge id="-324" sampledSeconds="5618.24" traveltime="47.15" overlapTraveltime="47.99" density="12.73" laneDensity="6.36" occupancy="3.16" waitingTime="3967.00" timeLoss="4966.92" speed="2.66" speedRelative="0.11" departed="122" arrived="0" entered="0" left="121" laneChangedFrom="90" laneChangedTo="90"/>
        <edge id="-325" sampledSeconds="729.92" traveltime="33.06" overlapTraveltime="34.40" density="1.16" laneDensity="0.58" occupancy="0.29" waitingTime="394.00" timeLoss="562.15" speed="5.22" speedRelative="0.22" departed="22" arrived="0" entered="0" left="22" laneChangedFrom="2" laneChangedTo="2"/>
        <edge id="-326" sampledSeconds="13398.73" traveltime="39.75" overlapTraveltime="40.63" density="69.01" laneDensity="17.25" occupancy="8.53" waitingTime="10017.00" timeLoss="12523.38" speed="1.45" speedRelative="0.06" departed="363" arrived="0" entered="0" left="361" laneChangedFrom="432" laneChangedTo="432"/>
        <edge id="-327" sampledSeconds="4567.00" traveltime="10.94" overlapTraveltime="11.59" density="13.57" laneDensity="4.52" occupancy="2.14" waitingTime="842.00" timeLoss="2073.39" speed="8.50" speedRelative="0.54" departed="0" arrived="0" entered="395" left="394" laneChangedFrom="113" laneChangedTo="113"/>
        <edge id="-328" sampledSeconds="5390.96" traveltime="17.36" overlapTraveltime="18.21" density="24.57" laneDensity="6.14" occupancy="2.96" waitingTime="3126.00" timeLoss="4151.53" speed="3.62" speedRelative="0.23" departed="0" arrived="0" entered="296" left="296" laneChangedFrom="83" laneChangedTo="83"/>
        <edge id="-329" sampledSeconds="1299.57" traveltime="1.27" overlapTraveltime="1.57" density="21.81" laneDensity="21.81" occupancy="8.43" waitingTime="0.00" timeLoss="526.93" speed="13.70" speedRelative="0.59" departed="0" arrived="878" entered="878" left="0" laneChangedFrom="0" laneChangedTo="0"/>
        <edge id="-330" sampledSeconds="245.43" traveltime="3.38" overlapTraveltime="3.83" density="4.12" laneDensity="4.12" occupancy="1.85" waitingTime="0.00" timeLoss="171.99" speed="5.63" speedRelative="0.24" departed="84" arrived="0" entered="0" left="84" laneChangedFrom="0" laneChangedTo="0"/>
        <edge id="-331" sampledSeconds="1583.01" traveltime="14.67" overlapTraveltime="14.98" density="1.78" laneDensity="1.78" occupancy="0.88" waitingTime="0.00" timeLoss="425.80" speed="16.85" speedRelative="0.72" departed="108" arrived="0" entered="0" left="108" laneChangedFrom="0" laneChangedTo="0"/>
    </interval>
</meandata>
