<?xml version="1.0" encoding="UTF-8"?>

<!-- generated on 2025-05-23 13:11:57 by Eclipse SUMO sumo Version 1.21.0
<sumoConfiguration xmlns:xsi="http://www.w3.org/2001/XMLSchema-instance" xsi:noNamespaceSchemaLocation="http://sumo.dlr.de/xsd/sumoConfiguration.xsd">

    <input>
        <net-file value="chatt.net.xml"/>
        <route-files value="chatt.rou.xml"/>
        <additional-files value="Edge.add.xml"/>
    </input>

    <time>
        <begin value="28800"/>
        <end value="32400"/>
        <step-length value="1"/>
    </time>

    <report>
        <no-warnings value="true"/>
        <no-step-log value="true"/>
    </report>

    <random_number>
        <seed value="812"/>
    </random_number>

    <gui_only>
        <start value="t"/>
    </gui_only>

</sumoConfiguration>
-->

<meandata xmlns:xsi="http://www.w3.org/2001/XMLSchema-instance" xsi:noNamespaceSchemaLocation="http://sumo.dlr.de/xsd/meandata_file.xsd">
    <interval begin="28800.00" end="32400.00" id="1">
        <edge id="-280" sampledSeconds="14293.49" traveltime="17.65" overlapTraveltime="18.58" density="142.77" laneDensity="47.59" occupancy="22.33" waitingTime="8917.00" timeLoss="12629.48" speed="1.77" speedRelative="0.11" departed="0" arrived="0" entered="771" left="768" laneChangedFrom="41" laneChangedTo="41"/>
        <edge id="-2801" sampledSeconds="26158.61" traveltime="33.10" overlapTraveltime="34.13" density="20.65" laneDensity="10.32" occupancy="5.06" waitingTime="980.07" timeLoss="8580.26" speed="10.46" speedRelative="0.66" departed="783" arrived="0" entered="0" left="771" laneChangedFrom="355" laneChangedTo="355"/>
        <edge id="-281" sampledSeconds="2528.17" traveltime="2.21" overlapTraveltime="2.60" density="27.14" laneDensity="9.05" occupancy="3.78" waitingTime="0.00" timeLoss="606.30" speed="11.87" speedRelative="0.75" departed="0" arrived="0" entered="973" left="972" laneChangedFrom="125" laneChangedTo="125"/>
        <edge id="-282" sampledSeconds="80.55" traveltime="0.99" overlapTraveltime="1.54" density="2.69" laneDensity="2.69" occupancy="0.87" waitingTime="0.00" timeLoss="50.13" speed="8.68" speedRelative="0.37" departed="0" arrived="58" entered="58" left="0" laneChangedFrom="0" laneChangedTo="0"/>
        <edge id="-283" sampledSeconds="517.09" traveltime="6.42" overlapTraveltime="6.75" density="1.97" laneDensity="1.97" occupancy="0.91" waitingTime="0.00" timeLoss="257.42" speed="11.53" speedRelative="0.49" departed="0" arrived="77" entered="78" left="0" laneChangedFrom="0" laneChangedTo="0"/>
        <edge id="-284" sampledSeconds="6218.42" traveltime="9.70" overlapTraveltime="12.39" density="72.70" laneDensity="36.35" occupancy="15.25" waitingTime="2601.00" timeLoss="5295.24" speed="2.32" speedRelative="0.15" departed="0" arrived="0" entered="504" left="501" laneChangedFrom="11" laneChangedTo="11"/>
        <edge id="-2841" sampledSeconds="15741.23" traveltime="27.17" overlapTraveltime="31.73" density="98.53" laneDensity="32.84" occupancy="14.93" waitingTime="8435.54" timeLoss="14104.43" speed="1.56" speedRelative="0.10" departed="0" arrived="0" entered="500" left="493" laneChangedFrom="72" laneChangedTo="72"/>
        <edge id="-285" sampledSeconds="24383.08" traveltime="23.22" overlapTraveltime="23.89" density="80.25" laneDensity="20.06" occupancy="9.83" waitingTime="14116.00" timeLoss="19241.34" speed="3.74" speedRelative="0.21" departed="0" arrived="0" entered="1024" left="1010" laneChangedFrom="226" laneChangedTo="226"/>
        <edge id="-2851" sampledSeconds="6677.44" traveltime="6.19" overlapTraveltime="6.51" density="22.72" laneDensity="7.57" occupancy="3.55" waitingTime="0.00" timeLoss="1709.00" speed="13.30" speedRelative="0.74" departed="0" arrived="0" entered="1027" left="1024" laneChangedFrom="223" laneChangedTo="223"/>
        <edge id="-286" sampledSeconds="18982.64" traveltime="15.21" overlapTraveltime="16.44" density="77.26" laneDensity="15.45" occupancy="7.20" waitingTime="5784.86" timeLoss="13543.97" speed="4.46" speedRelative="0.28" departed="0" arrived="0" entered="1163" left="1146" laneChangedFrom="191" laneChangedTo="191"/>
        <edge id="-287" sampledSeconds="7160.61" traveltime="21.43" overlapTraveltime="21.67" density="5.37" laneDensity="2.68" occupancy="1.31" waitingTime="0.00" timeLoss="1744.58" speed="17.33" speedRelative="0.74" departed="0" arrived="331" entered="331" left="0" laneChangedFrom="19" laneChangedTo="19"/>
        <edge id="-288" sampledSeconds="7474.77" traveltime="8.29" overlapTraveltime="8.79" density="24.68" laneDensity="12.34" occupancy="5.80" waitingTime="280.24" timeLoss="3195.52" speed="10.14" speedRelative="0.57" departed="0" arrived="0" entered="856" left="845" laneChangedFrom="110" laneChangedTo="110"/>
        <edge id="-2881" sampledSeconds="17770.67" traveltime="19.67" overlapTraveltime="21.34" density="60.70" laneDensity="20.23" occupancy="9.67" waitingTime="6325.00" timeLoss="13649.67" speed="4.05" speedRelative="0.23" departed="0" arrived="0" entered="843" left="822" laneChangedFrom="93" laneChangedTo="93"/>
        <edge id="-289" sampledSeconds="6733.12" traveltime="16.61" overlapTraveltime="16.85" density="6.45" laneDensity="3.22" occupancy="1.57" waitingTime="0.00" timeLoss="1655.42" speed="17.52" speedRelative="0.75" departed="0" arrived="400" entered="401" left="0" laneChangedFrom="16" laneChangedTo="16"/>
        <edge id="-290" sampledSeconds="2093.58" traveltime="1.60" overlapTraveltime="2.21" density="30.19" laneDensity="10.06" occupancy="3.79" waitingTime="177.00" timeLoss="933.95" speed="10.97" speedRelative="0.54" departed="0" arrived="0" entered="947" left="946" laneChangedFrom="75" laneChangedTo="75"/>
        <edge id="-291" sampledSeconds="0.00" departed="0" arrived="0" entered="0" left="0" laneChangedFrom="0" laneChangedTo="0"/>
        <edge id="-292" sampledSeconds="95881.20" traveltime="143.70" overlapTraveltime="144.95" density="75.35" laneDensity="25.12" occupancy="12.51" waitingTime="57531.00" timeLoss="85364.41" speed="2.47" speedRelative="0.11" departed="690" arrived="0" entered="0" left="635" laneChangedFrom="767" laneChangedTo="767"/>
        <edge id="-293" sampledSeconds="9533.28" traveltime="15.27" overlapTraveltime="15.93" density="39.21" laneDensity="19.60" occupancy="9.46" waitingTime="3751.00" timeLoss="7341.58" speed="4.55" speedRelative="0.22" departed="0" arrived="0" entered="600" left="595" laneChangedFrom="103" laneChangedTo="103"/>
        <edge id="-294" sampledSeconds="242.44" traveltime="4.64" overlapTraveltime="5.03" density="1.38" laneDensity="1.38" occupancy="0.63" waitingTime="0.00" timeLoss="126.54" speed="10.71" speedRelative="0.46" departed="0" arrived="49" entered="49" left="0" laneChangedFrom="0" laneChangedTo="0"/>
        <edge id="-295" sampledSeconds="3021.35" traveltime="3.36" overlapTraveltime="3.66" density="16.51" laneDensity="8.25" occupancy="3.78" waitingTime="0.00" timeLoss="740.22" speed="15.27" speedRelative="0.75" departed="0" arrived="838" entered="839" left="0" laneChangedFrom="4" laneChangedTo="4"/>
        <edge id="-296" sampledSeconds="814.26" traveltime="8.62" overlapTraveltime="8.92" density="2.11" laneDensity="2.11" occupancy="1.00" waitingTime="0.00" timeLoss="376.76" speed="12.60" speedRelative="0.54" departed="0" arrived="92" entered="92" left="0" laneChangedFrom="0" laneChangedTo="0"/>
        <edge id="-297" sampledSeconds="7027.87" traveltime="11.74" overlapTraveltime="12.49" density="101.36" laneDensity="50.68" occupancy="23.81" waitingTime="4669.00" timeLoss="6280.23" speed="1.94" speedRelative="0.10" departed="0" arrived="0" entered="565" left="561" laneChangedFrom="15" laneChangedTo="15"/>
        <edge id="-298" sampledSeconds="8712.20" traveltime="9.13" overlapTraveltime="9.71" density="35.83" laneDensity="11.94" occupancy="5.70" waitingTime="1807.00" timeLoss="5444.01" speed="7.47" speedRelative="0.37" departed="0" arrived="0" entered="898" left="897" laneChangedFrom="49" laneChangedTo="49"/>
        <edge id="-299" sampledSeconds="1223.44" traveltime="15.48" overlapTraveltime="15.71" density="1.43" laneDensity="1.43" occupancy="0.69" waitingTime="0.00" timeLoss="404.49" speed="15.43" speedRelative="0.66" departed="0" arrived="78" entered="78" left="0" laneChangedFrom="0" laneChangedTo="0"/>
        <edge id="-300" sampledSeconds="12404.82" traveltime="11.74" overlapTraveltime="12.51" density="50.49" laneDensity="12.62" occupancy="6.02" waitingTime="3806.00" timeLoss="7682.33" speed="5.86" speedRelative="0.37" departed="0" arrived="0" entered="994" left="988" laneChangedFrom="198" laneChangedTo="198"/>
        <edge id="-301" sampledSeconds="657.63" traveltime="5.89" overlapTraveltime="6.23" density="2.73" laneDensity="1.36" occupancy="0.63" waitingTime="0.00" timeLoss="329.88" speed="11.54" speedRelative="0.49" departed="0" arrived="107" entered="107" left="0" laneChangedFrom="0" laneChangedTo="0"/>
        <edge id="-302" sampledSeconds="2991.69" traveltime="2.21" overlapTraveltime="2.82" density="60.61" laneDensity="30.31" occupancy="12.03" waitingTime="606.00" timeLoss="1594.85" speed="6.64" speedRelative="0.42" departed="0" arrived="0" entered="1063" left="1061" laneChangedFrom="14" laneChangedTo="14"/>
        <edge id="-303" sampledSeconds="828.86" traveltime="10.03" overlapTraveltime="10.28" density="1.49" laneDensity="1.49" occupancy="0.72" waitingTime="0.00" timeLoss="272.90" speed="15.52" speedRelative="0.67" departed="0" arrived="81" entered="81" left="0" laneChangedFrom="0" laneChangedTo="0"/>
        <edge id="-304" sampledSeconds="6435.22" traveltime="28.07" overlapTraveltime="28.42" density="4.61" laneDensity="2.30" occupancy="1.14" waitingTime="0.00" timeLoss="760.67" speed="13.82" speedRelative="0.88" departed="0" arrived="226" entered="227" left="0" laneChangedFrom="69" laneChangedTo="69"/>
        <edge id="-305" sampledSeconds="9266.10" traveltime="23.77" overlapTraveltime="24.05" density="6.51" laneDensity="3.25" occupancy="1.60" waitingTime="0.00" timeLoss="1551.54" speed="16.66" speedRelative="0.82" departed="0" arrived="386" entered="386" left="0" laneChangedFrom="55" laneChangedTo="55"/>
        <edge id="-306" sampledSeconds="743.24" traveltime="3.36" overlapTraveltime="3.72" density="5.31" laneDensity="5.31" occupancy="2.36" waitingTime="0.00" timeLoss="367.74" speed="11.78" speedRelative="0.50" departed="0" arrived="203" entered="203" left="0" laneChangedFrom="0" laneChangedTo="0"/>
        <edge id="-307" sampledSeconds="3695.72" traveltime="3.32" overlapTraveltime="3.77" density="29.14" laneDensity="14.57" occupancy="6.34" waitingTime="7.00" timeLoss="1124.60" speed="10.68" speedRelative="0.68" departed="0" arrived="0" entered="982" left="981" laneChangedFrom="35" laneChangedTo="35"/>
        <edge id="-308" sampledSeconds="27447.42" traveltime="66.07" overlapTraveltime="67.11" density="19.28" laneDensity="6.43" occupancy="3.19" waitingTime="12015.00" timeLoss="19226.30" speed="5.97" speedRelative="0.29" departed="417" arrived="0" entered="0" left="411" laneChangedFrom="419" laneChangedTo="419"/>
        <edge id="-309" sampledSeconds="1566.56" traveltime="38.61" overlapTraveltime="40.36" density="8.90" laneDensity="4.45" occupancy="2.18" waitingTime="975.00" timeLoss="1460.84" speed="1.33" speedRelative="0.06" departed="43" arrived="0" entered="0" left="42" laneChangedFrom="18" laneChangedTo="18"/>
        <edge id="-310" sampledSeconds="85071.76" traveltime="113.28" overlapTraveltime="114.56" density="45.88" laneDensity="11.47" occupancy="5.71" waitingTime="40490.00" timeLoss="68189.27" speed="4.54" speedRelative="0.19" departed="765" arrived="0" entered="0" left="712" laneChangedFrom="1593" laneChangedTo="1593"/>
        <edge id="-311" sampledSeconds="0.00" departed="0" arrived="0" entered="0" left="0" laneChangedFrom="0" laneChangedTo="0"/>
        <edge id="-312" sampledSeconds="7106.27" traveltime="14.14" overlapTraveltime="14.79" density="38.83" laneDensity="12.94" occupancy="6.31" waitingTime="1466.00" timeLoss="5760.13" speed="3.78" speedRelative="0.19" departed="531" arrived="0" entered="0" left="528" laneChangedFrom="151" laneChangedTo="151"/>
        <edge id="-313" sampledSeconds="7672.97" traveltime="12.09" overlapTraveltime="13.68" density="82.36" laneDensity="27.45" occupancy="12.26" waitingTime="4407.00" timeLoss="6539.42" speed="2.26" speedRelative="0.14" departed="0" arrived="0" entered="563" left="559" laneChangedFrom="4" laneChangedTo="4"/>
        <edge id="-314" sampledSeconds="693.74" traveltime="2.11" overlapTraveltime="2.75" density="13.90" laneDensity="13.90" occupancy="5.23" waitingTime="0.00" timeLoss="487.63" speed="6.86" speedRelative="0.29" departed="0" arrived="274" entered="274" left="0" laneChangedFrom="0" laneChangedTo="0"/>
        <edge id="-315" sampledSeconds="6010.67" traveltime="5.86" overlapTraveltime="6.21" density="20.55" laneDensity="6.85" occupancy="3.23" waitingTime="0.00" timeLoss="670.97" speed="13.88" speedRelative="0.88" departed="0" arrived="0" entered="970" left="965" laneChangedFrom="157" laneChangedTo="157"/>
        <edge id="-3151" sampledSeconds="5448.86" traveltime="5.19" overlapTraveltime="5.65" density="26.12" laneDensity="5.22" occupancy="2.42" waitingTime="517.00" timeLoss="1566.45" speed="11.14" speedRelative="0.71" departed="0" arrived="0" entered="965" left="963" laneChangedFrom="63" laneChangedTo="63"/>
        <edge id="-316" sampledSeconds="0.00" departed="0" arrived="0" entered="0" left="0" laneChangedFrom="0" laneChangedTo="0"/>
        <edge id="-317" sampledSeconds="2161.85" traveltime="108.52" overlapTraveltime="71.46" density="72.09" laneDensity="36.05" occupancy="17.70" waitingTime="1907.00" timeLoss="2127.37" speed="0.19" speedRelative="0.01" departed="49" arrived="0" entered="0" left="49" laneChangedFrom="32" laneChangedTo="32"/>
        <edge id="-318" sampledSeconds="5368.03" traveltime="52.10" overlapTraveltime="53.81" density="20.50" laneDensity="10.25" occupancy="5.05" waitingTime="3387.00" timeLoss="4980.85" speed="1.44" speedRelative="0.06" departed="107" arrived="0" entered="0" left="105" laneChangedFrom="11" laneChangedTo="11"/>
        <edge id="-319" sampledSeconds="59059.87" traveltime="488.22" overlapTraveltime="489.74" density="240.23" laneDensity="80.08" occupancy="39.98" waitingTime="52939.00" timeLoss="58648.42" speed="0.15" speedRelative="0.01" departed="139" arrived="0" entered="0" left="121" laneChangedFrom="155" laneChangedTo="155"/>
        <edge id="-320" sampledSeconds="0.00" departed="0" arrived="0" entered="0" left="0" laneChangedFrom="0" laneChangedTo="0"/>
        <edge id="-321" sampledSeconds="4635.50" traveltime="4.15" overlapTraveltime="4.82" density="93.92" laneDensity="18.78" occupancy="8.20" waitingTime="2004.30" timeLoss="3471.20" speed="3.88" speedRelative="0.25" departed="0" arrived="0" entered="963" left="961" laneChangedFrom="24" laneChangedTo="24"/>
        <edge id="-322" sampledSeconds="8558.80" traveltime="9.45" overlapTraveltime="10.18" density="77.49" laneDensity="38.75" occupancy="18.07" waitingTime="4071.92" timeLoss="6465.88" speed="3.51" speedRelative="0.22" departed="0" arrived="0" entered="843" left="839" laneChangedFrom="6" laneChangedTo="6"/>
        <edge id="-3221" sampledSeconds="21268.66" traveltime="24.31" overlapTraveltime="25.00" density="50.87" laneDensity="25.43" occupancy="12.40" waitingTime="7782.00" timeLoss="14670.58" speed="4.85" speedRelative="0.31" departed="0" arrived="0" entered="858" left="843" laneChangedFrom="117" laneChangedTo="117"/>
        <edge id="-323" sampledSeconds="556.73" traveltime="2.35" overlapTraveltime="2.97" density="9.71" laneDensity="9.71" occupancy="3.76" waitingTime="0.00" timeLoss="387.33" speed="7.04" speedRelative="0.30" departed="0" arrived="203" entered="203" left="0" laneChangedFrom="0" laneChangedTo="0"/>
        <edge id="-324" sampledSeconds="43103.61" traveltime="377.83" overlapTraveltime="379.54" density="107.22" laneDensity="53.61" occupancy="26.76" waitingTime="36142.00" timeLoss="42480.59" speed="0.31" speedRelative="0.01" departed="122" arrived="0" entered="0" left="113" laneChangedFrom="80" laneChangedTo="80"/>
        <edge id="-325" sampledSeconds="695.27" traveltime="30.51" overlapTraveltime="32.65" density="1.25" laneDensity="0.63" occupancy="0.30" waitingTime="230.00" timeLoss="542.85" speed="4.88" speedRelative="0.21" departed="22" arrived="0" entered="0" left="22" laneChangedFrom="2" laneChangedTo="2"/>
        <edge id="-326" sampledSeconds="16992.35" traveltime="52.37" overlapTraveltime="53.31" density="121.84" laneDensity="30.46" occupancy="15.02" waitingTime="11496.00" timeLoss="16278.49" speed="0.82" speedRelative="0.04" departed="363" arrived="0" entered="0" left="356" laneChangedFrom="420" laneChangedTo="420"/>
        <edge id="-327" sampledSeconds="4733.11" traveltime="4.54" overlapTraveltime="5.23" density="29.97" laneDensity="14.98" occupancy="6.73" waitingTime="83.00" timeLoss="1896.98" speed="9.34" speedRelative="0.59" departed="0" arrived="0" entered="906" left="904" laneChangedFrom="50" laneChangedTo="50"/>
        <edge id="-3271" sampledSeconds="5834.79" traveltime="5.83" overlapTraveltime="6.47" density="66.84" laneDensity="22.28" occupancy="9.77" waitingTime="1849.00" timeLoss="4127.31" speed="4.52" speedRelative="0.29" departed="0" arrived="0" entered="904" left="902" laneChangedFrom="20" laneChangedTo="20"/>
        <edge id="-328" sampledSeconds="5124.72" traveltime="17.96" overlapTraveltime="19.34" density="40.42" laneDensity="10.10" occupancy="4.85" waitingTime="3139.00" timeLoss="4399.31" speed="2.08" speedRelative="0.13" departed="0" arrived="0" entered="265" left="265" laneChangedFrom="56" laneChangedTo="56"/>
        <edge id="-329" sampledSeconds="392.27" traveltime="0.90" overlapTraveltime="1.55" density="17.49" laneDensity="17.49" occupancy="5.12" waitingTime="0.00" timeLoss="269.80" speed="7.24" speedRelative="0.31" departed="0" arrived="299" entered="299" left="0" laneChangedFrom="0" laneChangedTo="0"/>
        <edge id="-330" sampledSeconds="0.00" departed="0" arrived="0" entered="0" left="0" laneChangedFrom="0" laneChangedTo="0"/>
        <edge id="-331" sampledSeconds="0.00" departed="0" arrived="0" entered="0" left="0" laneChangedFrom="0" laneChangedTo="0"/>
    </interval>
</meandata>
