<?xml version="1.0" encoding="UTF-8"?>

<!-- generated on 2025-05-23 11:34:23 by Eclipse SUMO GUI Version 1.21.0
<sumoConfiguration xmlns:xsi="http://www.w3.org/2001/XMLSchema-instance" xsi:noNamespaceSchemaLocation="http://sumo.dlr.de/xsd/sumoConfiguration.xsd">

    <input>
        <net-file value="C:\Users\xh8\ornl_work\github_workspace\Real-Twin-Dev\datasets\chattanooga\output\SUMO\behavior\chatt.net.xml"/>
        <route-files value="C:\Users\xh8\ornl_work\github_workspace\Real-Twin-Dev\datasets\chattanooga\output\SUMO\behavior\chatt.rou.xml"/>
        <additional-files value="C:\Users\xh8\ornl_work\github_workspace\Real-Twin-Dev\datasets\chattanooga\output\SUMO\behavior\Edge.add.xml"/>
    </input>

    <time>
        <begin value="28800"/>
        <end value="32400"/>
        <step-length value="1"/>
    </time>

    <report>
        <no-warnings value="true"/>
        <no-step-log value="true"/>
    </report>

    <random_number>
        <seed value="812"/>
    </random_number>

    <gui_only>
        <start value="t"/>
    </gui_only>

</sumoConfiguration>
-->

<meandata xmlns:xsi="http://www.w3.org/2001/XMLSchema-instance" xsi:noNamespaceSchemaLocation="http://sumo.dlr.de/xsd/meandata_file.xsd">
    <interval begin="28800.00" end="31571.00" id="1">
        <edge id="-280" sampledSeconds="8387.16" traveltime="13.38" overlapTraveltime="14.10" density="108.84" laneDensity="36.28" occupancy="17.03" waitingTime="5543.00" timeLoss="7107.25" speed="2.33" speedRelative="0.15" departed="0" arrived="0" entered="598" left="591" laneChangedFrom="19" laneChangedTo="19"/>
        <edge id="-2801" sampledSeconds="18603.40" traveltime="30.54" overlapTraveltime="31.17" density="19.07" laneDensity="9.54" occupancy="4.71" waitingTime="1042.88" timeLoss="4927.35" speed="11.45" speedRelative="0.73" departed="611" arrived="0" entered="0" left="599" laneChangedFrom="192" laneChangedTo="192"/>
        <edge id="-281" sampledSeconds="1096.43" traveltime="2.02" overlapTraveltime="2.38" density="15.29" laneDensity="5.10" occupancy="2.12" waitingTime="0.00" timeLoss="178.95" speed="12.97" speedRelative="0.82" departed="0" arrived="0" entered="461" left="461" laneChangedFrom="47" laneChangedTo="47"/>
        <edge id="-282" sampledSeconds="51.13" traveltime="0.88" overlapTraveltime="1.37" density="2.21" laneDensity="2.21" occupancy="0.72" waitingTime="0.00" timeLoss="29.57" speed="9.71" speedRelative="0.42" departed="0" arrived="41" entered="41" left="0" laneChangedFrom="0" laneChangedTo="0"/>
        <edge id="-283" sampledSeconds="320.80" traveltime="5.31" overlapTraveltime="5.58" density="1.59" laneDensity="1.59" occupancy="0.74" waitingTime="0.00" timeLoss="131.32" speed="13.94" speedRelative="0.60" departed="0" arrived="58" entered="58" left="0" laneChangedFrom="0" laneChangedTo="0"/>
        <edge id="-284" sampledSeconds="781.93" traveltime="1.69" overlapTraveltime="2.03" density="11.88" laneDensity="5.94" occupancy="2.45" waitingTime="0.00" timeLoss="71.43" speed="14.16" speedRelative="0.90" departed="0" arrived="0" entered="385" left="385" laneChangedFrom="6" laneChangedTo="6"/>
        <edge id="-2841" sampledSeconds="1379.37" traveltime="3.13" overlapTraveltime="3.58" density="11.22" laneDensity="3.74" occupancy="1.68" waitingTime="43.00" timeLoss="158.36" speed="13.78" speedRelative="0.88" departed="0" arrived="0" entered="385" left="385" laneChangedFrom="20" laneChangedTo="20"/>
        <edge id="-285" sampledSeconds="12450.80" traveltime="21.32" overlapTraveltime="21.93" density="53.24" laneDensity="13.31" occupancy="6.52" waitingTime="7845.00" timeLoss="9566.52" speed="4.08" speedRelative="0.23" departed="0" arrived="0" entered="568" left="565" laneChangedFrom="131" laneChangedTo="131"/>
        <edge id="-2851" sampledSeconds="3295.02" traveltime="5.50" overlapTraveltime="5.80" density="14.57" laneDensity="4.86" occupancy="2.27" waitingTime="0.00" timeLoss="519.70" speed="14.93" speedRelative="0.83" departed="0" arrived="0" entered="568" left="568" laneChangedFrom="127" laneChangedTo="127"/>
        <edge id="-286" sampledSeconds="8549.35" traveltime="8.29" overlapTraveltime="9.02" density="45.21" laneDensity="9.04" occupancy="4.19" waitingTime="1587.00" timeLoss="4083.48" speed="8.12" speedRelative="0.52" departed="0" arrived="0" entered="950" left="946" laneChangedFrom="158" laneChangedTo="158"/>
        <edge id="-287" sampledSeconds="3919.18" traveltime="19.33" overlapTraveltime="19.56" density="3.82" laneDensity="1.91" occupancy="0.93" waitingTime="0.00" timeLoss="642.43" speed="19.20" speedRelative="0.82" departed="0" arrived="200" entered="202" left="0" laneChangedFrom="1" laneChangedTo="1"/>
        <edge id="-288" sampledSeconds="3734.52" traveltime="5.67" overlapTraveltime="5.98" density="16.02" laneDensity="8.01" occupancy="3.75" waitingTime="0.00" timeLoss="605.34" speed="14.91" speedRelative="0.83" departed="0" arrived="0" entered="625" left="624" laneChangedFrom="12" laneChangedTo="12"/>
        <edge id="-2881" sampledSeconds="7269.92" traveltime="10.81" overlapTraveltime="11.66" density="32.26" laneDensity="10.75" occupancy="5.13" waitingTime="1881.00" timeLoss="4200.10" speed="7.40" speedRelative="0.41" departed="0" arrived="0" entered="624" left="623" laneChangedFrom="57" laneChangedTo="57"/>
        <edge id="-289" sampledSeconds="3927.66" traveltime="15.38" overlapTraveltime="15.61" density="4.88" laneDensity="2.44" occupancy="1.19" waitingTime="0.00" timeLoss="700.62" speed="18.90" speedRelative="0.81" departed="0" arrived="252" entered="252" left="0" laneChangedFrom="8" laneChangedTo="8"/>
        <edge id="-290" sampledSeconds="1128.07" traveltime="1.41" overlapTraveltime="1.90" density="21.14" laneDensity="7.05" occupancy="2.68" waitingTime="67.00" timeLoss="393.52" speed="12.77" speedRelative="0.63" departed="0" arrived="0" entered="594" left="594" laneChangedFrom="45" laneChangedTo="45"/>
        <edge id="-291" sampledSeconds="0.00" departed="0" arrived="0" entered="0" left="0" laneChangedFrom="0" laneChangedTo="0"/>
        <edge id="-292" sampledSeconds="29291.64" traveltime="57.07" overlapTraveltime="58.17" density="29.91" laneDensity="9.97" occupancy="4.94" waitingTime="13434.00" timeLoss="21286.82" speed="6.16" speedRelative="0.26" departed="517" arrived="0" entered="0" left="490" laneChangedFrom="499" laneChangedTo="499"/>
        <edge id="-293" sampledSeconds="4003.58" traveltime="8.74" overlapTraveltime="9.23" density="21.39" laneDensity="10.70" occupancy="5.11" waitingTime="1363.00" timeLoss="2423.58" speed="7.86" speedRelative="0.39" departed="0" arrived="0" entered="434" left="434" laneChangedFrom="80" laneChangedTo="80"/>
        <edge id="-294" sampledSeconds="73.92" traveltime="3.76" overlapTraveltime="4.07" density="0.55" laneDensity="0.55" occupancy="0.25" waitingTime="0.00" timeLoss="32.76" speed="13.21" speedRelative="0.57" departed="0" arrived="18" entered="19" left="0" laneChangedFrom="0" laneChangedTo="0"/>
        <edge id="-295" sampledSeconds="1720.45" traveltime="2.92" overlapTraveltime="3.19" density="12.21" laneDensity="6.11" occupancy="2.79" waitingTime="0.00" timeLoss="218.95" speed="17.49" speedRelative="0.86" departed="0" arrived="544" entered="548" left="0" laneChangedFrom="2" laneChangedTo="2"/>
        <edge id="-296" sampledSeconds="364.67" traveltime="7.39" overlapTraveltime="7.64" density="1.23" laneDensity="1.23" occupancy="0.58" waitingTime="0.00" timeLoss="129.76" speed="14.71" speedRelative="0.63" departed="0" arrived="48" entered="48" left="0" laneChangedFrom="0" laneChangedTo="0"/>
        <edge id="-297" sampledSeconds="3817.48" traveltime="8.53" overlapTraveltime="9.16" density="71.53" laneDensity="35.76" occupancy="16.89" waitingTime="2520.00" timeLoss="3252.35" speed="2.65" speedRelative="0.13" departed="0" arrived="0" entered="417" left="417" laneChangedFrom="7" laneChangedTo="7"/>
        <edge id="-298" sampledSeconds="3024.97" traveltime="4.92" overlapTraveltime="5.35" density="16.16" laneDensity="5.39" occupancy="2.52" waitingTime="324.00" timeLoss="951.84" speed="13.56" speedRelative="0.67" departed="0" arrived="0" entered="566" left="565" laneChangedFrom="16" laneChangedTo="16"/>
        <edge id="-299" sampledSeconds="613.42" traveltime="13.59" overlapTraveltime="13.83" density="0.93" laneDensity="0.93" occupancy="0.45" waitingTime="0.00" timeLoss="141.43" speed="17.54" speedRelative="0.75" departed="0" arrived="44" entered="45" left="0" laneChangedFrom="0" laneChangedTo="0"/>
        <edge id="-300" sampledSeconds="5974.18" traveltime="10.66" overlapTraveltime="11.38" density="31.59" laneDensity="7.90" occupancy="3.76" waitingTime="2035.00" timeLoss="3447.87" speed="6.44" speedRelative="0.41" departed="0" arrived="0" entered="527" left="525" laneChangedFrom="125" laneChangedTo="125"/>
        <edge id="-301" sampledSeconds="311.67" traveltime="5.06" overlapTraveltime="5.34" density="1.68" laneDensity="0.84" occupancy="0.39" waitingTime="0.00" timeLoss="132.89" speed="13.47" speedRelative="0.58" departed="0" arrived="59" entered="59" left="0" laneChangedFrom="0" laneChangedTo="0"/>
        <edge id="-302" sampledSeconds="1354.04" traveltime="1.12" overlapTraveltime="1.53" density="35.64" laneDensity="17.82" occupancy="6.53" waitingTime="0.00" timeLoss="262.44" speed="12.25" speedRelative="0.78" departed="0" arrived="0" entered="887" left="887" laneChangedFrom="6" laneChangedTo="6"/>
        <edge id="-303" sampledSeconds="664.99" traveltime="8.66" overlapTraveltime="8.89" density="1.55" laneDensity="1.55" occupancy="0.75" waitingTime="0.00" timeLoss="144.35" speed="17.95" speedRelative="0.77" departed="0" arrived="75" entered="75" left="0" laneChangedFrom="0" laneChangedTo="0"/>
        <edge id="-304" sampledSeconds="6761.96" traveltime="26.48" overlapTraveltime="26.82" density="6.29" laneDensity="3.15" occupancy="1.55" waitingTime="0.00" timeLoss="454.03" speed="14.65" speedRelative="0.93" departed="0" arrived="252" entered="253" left="0" laneChangedFrom="54" laneChangedTo="54"/>
        <edge id="-305" sampledSeconds="7428.62" traveltime="22.35" overlapTraveltime="22.61" density="6.78" laneDensity="3.39" occupancy="1.67" waitingTime="0.00" timeLoss="851.30" speed="17.71" speedRelative="0.87" departed="0" arrived="328" entered="333" left="0" laneChangedFrom="42" laneChangedTo="42"/>
        <edge id="-306" sampledSeconds="572.23" traveltime="2.81" overlapTraveltime="3.12" density="5.32" laneDensity="5.32" occupancy="2.36" waitingTime="0.00" timeLoss="227.26" speed="14.05" speedRelative="0.60" departed="0" arrived="187" entered="187" left="0" laneChangedFrom="0" laneChangedTo="0"/>
        <edge id="-307" sampledSeconds="3112.30" traveltime="3.44" overlapTraveltime="4.02" density="31.88" laneDensity="15.94" occupancy="6.92" waitingTime="0.00" timeLoss="896.26" speed="10.00" speedRelative="0.64" departed="0" arrived="0" entered="774" left="774" laneChangedFrom="20" laneChangedTo="20"/>
        <edge id="-308" sampledSeconds="20857.68" traveltime="64.34" overlapTraveltime="65.19" density="19.03" laneDensity="6.34" occupancy="3.15" waitingTime="10693.00" timeLoss="14453.77" speed="6.14" speedRelative="0.30" departed="325" arrived="0" entered="0" left="321" laneChangedFrom="268" laneChangedTo="268"/>
        <edge id="-309" sampledSeconds="1047.71" traveltime="45.16" overlapTraveltime="46.29" density="7.74" laneDensity="3.87" occupancy="1.90" waitingTime="788.00" timeLoss="987.15" speed="1.16" speedRelative="0.05" departed="25" arrived="0" entered="0" left="25" laneChangedFrom="16" laneChangedTo="16"/>
        <edge id="-310" sampledSeconds="30411.88" traveltime="51.58" overlapTraveltime="52.69" density="21.31" laneDensity="5.33" occupancy="2.64" waitingTime="9156.00" timeLoss="17269.01" speed="9.87" speedRelative="0.42" departed="588" arrived="0" entered="0" left="572" laneChangedFrom="1121" laneChangedTo="1121"/>
        <edge id="-311" sampledSeconds="0.00" departed="0" arrived="0" entered="0" left="0" laneChangedFrom="0" laneChangedTo="0"/>
        <edge id="-312" sampledSeconds="3423.28" traveltime="9.38" overlapTraveltime="9.87" density="24.30" laneDensity="8.10" occupancy="3.94" waitingTime="556.00" timeLoss="2457.45" speed="5.66" speedRelative="0.28" departed="383" arrived="0" entered="0" left="379" laneChangedFrom="71" laneChangedTo="71"/>
        <edge id="-313" sampledSeconds="1606.57" traveltime="3.07" overlapTraveltime="3.68" density="22.40" laneDensity="7.47" occupancy="3.24" waitingTime="356.00" timeLoss="721.74" speed="8.39" speedRelative="0.53" departed="0" arrived="0" entered="438" left="434" laneChangedFrom="7" laneChangedTo="7"/>
        <edge id="-314" sampledSeconds="880.97" traveltime="1.82" overlapTraveltime="2.36" density="22.94" laneDensity="22.94" occupancy="8.44" waitingTime="0.00" timeLoss="578.62" speed="8.01" speedRelative="0.34" departed="0" arrived="392" entered="392" left="0" laneChangedFrom="0" laneChangedTo="0"/>
        <edge id="-315" sampledSeconds="2724.45" traveltime="5.57" overlapTraveltime="5.91" density="12.10" laneDensity="4.03" occupancy="1.90" waitingTime="0.00" timeLoss="159.93" speed="14.59" speedRelative="0.93" departed="0" arrived="0" entered="461" left="461" laneChangedFrom="65" laneChangedTo="65"/>
        <edge id="-3151" sampledSeconds="2235.13" traveltime="4.45" overlapTraveltime="4.85" density="13.92" laneDensity="2.78" occupancy="1.29" waitingTime="136.00" timeLoss="363.81" speed="12.98" speedRelative="0.82" departed="0" arrived="0" entered="461" left="461" laneChangedFrom="36" laneChangedTo="36"/>
        <edge id="-316" sampledSeconds="0.00" departed="0" arrived="0" entered="0" left="0" laneChangedFrom="0" laneChangedTo="0"/>
        <edge id="-317" sampledSeconds="1872.56" traveltime="124.78" overlapTraveltime="82.03" density="81.12" laneDensity="40.56" occupancy="20.02" waitingTime="1720.00" timeLoss="1847.59" speed="0.16" speedRelative="0.01" departed="38" arrived="0" entered="0" left="37" laneChangedFrom="23" laneChangedTo="23"/>
        <edge id="-318" sampledSeconds="2560.19" traveltime="31.61" overlapTraveltime="33.04" density="12.70" laneDensity="6.35" occupancy="3.11" waitingTime="1442.00" timeLoss="2259.28" speed="2.35" speedRelative="0.10" departed="83" arrived="0" entered="0" left="83" laneChangedFrom="2" laneChangedTo="2"/>
        <edge id="-319" sampledSeconds="16102.12" traveltime="129.67" overlapTraveltime="130.60" density="85.09" laneDensity="28.36" occupancy="14.12" waitingTime="13973.00" timeLoss="15675.44" speed="0.56" speedRelative="0.02" departed="137" arrived="0" entered="0" left="128" laneChangedFrom="141" laneChangedTo="141"/>
        <edge id="-320" sampledSeconds="0.00" departed="0" arrived="0" entered="0" left="0" laneChangedFrom="0" laneChangedTo="0"/>
        <edge id="-321" sampledSeconds="2019.13" traveltime="3.79" overlapTraveltime="4.38" density="53.15" laneDensity="10.63" occupancy="4.70" waitingTime="963.00" timeLoss="1456.68" speed="4.27" speedRelative="0.27" departed="0" arrived="0" entered="461" left="461" laneChangedFrom="24" laneChangedTo="24"/>
        <edge id="-322" sampledSeconds="3189.30" traveltime="3.21" overlapTraveltime="3.83" density="37.51" laneDensity="18.76" occupancy="8.07" waitingTime="22.00" timeLoss="1045.40" speed="9.31" speedRelative="0.59" departed="0" arrived="0" entered="834" left="832" laneChangedFrom="7" laneChangedTo="7"/>
        <edge id="-3221" sampledSeconds="7690.30" traveltime="8.77" overlapTraveltime="9.22" density="23.90" laneDensity="11.95" occupancy="5.71" waitingTime="1.00" timeLoss="1239.68" speed="13.14" speedRelative="0.83" departed="0" arrived="0" entered="834" left="834" laneChangedFrom="54" laneChangedTo="54"/>
        <edge id="-323" sampledSeconds="129.46" traveltime="2.08" overlapTraveltime="2.62" density="2.93" laneDensity="2.93" occupancy="1.13" waitingTime="0.00" timeLoss="84.70" speed="7.99" speedRelative="0.34" departed="0" arrived="53" entered="53" left="0" laneChangedFrom="0" laneChangedTo="0"/>
        <edge id="-324" sampledSeconds="13757.89" traveltime="169.85" overlapTraveltime="171.15" density="44.46" laneDensity="22.23" occupancy="11.08" waitingTime="11963.00" timeLoss="13314.64" speed="0.68" speedRelative="0.03" departed="85" arrived="0" entered="0" left="80" laneChangedFrom="61" laneChangedTo="61"/>
        <edge id="-325" sampledSeconds="537.72" traveltime="35.38" overlapTraveltime="37.03" density="1.26" laneDensity="0.63" occupancy="0.31" waitingTime="269.00" timeLoss="433.16" speed="4.30" speedRelative="0.18" departed="15" arrived="0" entered="0" left="15" laneChangedFrom="1" laneChangedTo="1"/>
        <edge id="-326" sampledSeconds="11220.90" traveltime="47.54" overlapTraveltime="48.23" density="104.53" laneDensity="26.13" occupancy="12.89" waitingTime="8455.00" timeLoss="10697.31" speed="0.91" speedRelative="0.04" departed="264" arrived="0" entered="0" left="261" laneChangedFrom="304" laneChangedTo="304"/>
        <edge id="-327" sampledSeconds="1402.53" traveltime="3.14" overlapTraveltime="3.55" density="11.54" laneDensity="5.77" occupancy="2.58" waitingTime="1.00" timeLoss="158.83" speed="13.76" speedRelative="0.87" departed="0" arrived="0" entered="395" left="395" laneChangedFrom="14" laneChangedTo="14"/>
        <edge id="-3271" sampledSeconds="1688.49" traveltime="3.75" overlapTraveltime="4.28" density="25.13" laneDensity="8.38" occupancy="3.71" waitingTime="479.00" timeLoss="936.10" speed="6.84" speedRelative="0.43" departed="0" arrived="0" entered="395" left="394" laneChangedFrom="36" laneChangedTo="36"/>
        <edge id="-328" sampledSeconds="5874.89" traveltime="14.43" overlapTraveltime="15.51" density="60.20" laneDensity="15.05" occupancy="7.20" waitingTime="3295.00" timeLoss="4833.83" speed="2.59" speedRelative="0.16" departed="0" arrived="0" entered="381" left="375" laneChangedFrom="36" laneChangedTo="36"/>
        <edge id="-329" sampledSeconds="507.45" traveltime="0.85" overlapTraveltime="1.45" density="29.39" laneDensity="29.39" occupancy="8.34" waitingTime="0.00" timeLoss="338.39" speed="7.72" speedRelative="0.33" departed="0" arrived="383" entered="383" left="0" laneChangedFrom="0" laneChangedTo="0"/>
        <edge id="-330" sampledSeconds="0.00" departed="0" arrived="0" entered="0" left="0" laneChangedFrom="0" laneChangedTo="0"/>
        <edge id="-331" sampledSeconds="0.00" departed="0" arrived="0" entered="0" left="0" laneChangedFrom="0" laneChangedTo="0"/>
    </interval>
</meandata>
