<?xml version="1.0" encoding="UTF-8"?>

<!-- generated on 2025-05-20 23:31:17 by Eclipse SUMO sumo Version 1.21.0
<sumoConfiguration xmlns:xsi="http://www.w3.org/2001/XMLSchema-instance" xsi:noNamespaceSchemaLocation="http://sumo.dlr.de/xsd/sumoConfiguration.xsd">

    <input>
        <net-file value="chatt.net.xml"/>
        <route-files value="chatt.rou.xml"/>
        <additional-files value="Edge.add.xml"/>
    </input>

    <time>
        <begin value="28800"/>
        <end value="32400"/>
        <step-length value="1"/>
    </time>

    <report>
        <no-warnings value="true"/>
        <no-step-log value="true"/>
    </report>

    <traci_server>
        <remote-port value="53607"/>
    </traci_server>

    <random_number>
        <seed value="42"/>
    </random_number>

    <gui_only>
        <start value="t"/>
    </gui_only>

</sumoConfiguration>
-->

<meandata xmlns:xsi="http://www.w3.org/2001/XMLSchema-instance" xsi:noNamespaceSchemaLocation="http://sumo.dlr.de/xsd/meandata_file.xsd">
    <interval begin="28800.00" end="32400.00" id="1">
        <edge id="-390" sampledSeconds="11938.48" traveltime="14.79" overlapTraveltime="15.40" density="69.54" laneDensity="23.18" occupancy="11.13" waitingTime="6754.00" timeLoss="9312.63" speed="3.42" speedRelative="0.22" departed="0" arrived="0" entered="776" left="775" laneChangedFrom="76" laneChangedTo="76"/>
        <edge id="-391" sampledSeconds="22255.36" traveltime="28.40" overlapTraveltime="28.98" density="17.34" laneDensity="8.67" occupancy="4.29" waitingTime="172.00" timeLoss="4269.01" speed="12.48" speedRelative="0.79" departed="784" arrived="0" entered="0" left="776" laneChangedFrom="223" laneChangedTo="223"/>
        <edge id="-392" sampledSeconds="2572.06" traveltime="4.08" overlapTraveltime="4.43" density="14.85" laneDensity="4.95" occupancy="2.19" waitingTime="0.00" timeLoss="575.22" speed="11.99" speedRelative="0.76" departed="0" arrived="0" entered="581" left="581" laneChangedFrom="178" laneChangedTo="178"/>
        <edge id="-393" sampledSeconds="122.25" traveltime="3.06" overlapTraveltime="3.54" density="1.45" laneDensity="1.45" occupancy="0.57" waitingTime="0.00" timeLoss="80.47" speed="8.03" speedRelative="0.34" departed="0" arrived="36" entered="36" left="0" laneChangedFrom="0" laneChangedTo="0"/>
        <edge id="-394" sampledSeconds="149.79" traveltime="6.60" overlapTraveltime="6.86" density="0.47" laneDensity="0.47" occupancy="0.22" waitingTime="0.00" timeLoss="64.84" speed="13.53" speedRelative="0.58" departed="0" arrived="22" entered="22" left="0" laneChangedFrom="0" laneChangedTo="0"/>
        <edge id="-395" sampledSeconds="214.03" traveltime="3.92" overlapTraveltime="4.28" density="1.53" laneDensity="0.76" occupancy="0.32" waitingTime="0.00" timeLoss="74.71" speed="10.26" speedRelative="0.65" departed="0" arrived="0" entered="50" left="50" laneChangedFrom="13" laneChangedTo="13"/>
        <edge id="-396" sampledSeconds="482.33" traveltime="8.79" overlapTraveltime="9.65" density="2.37" laneDensity="0.79" occupancy="0.37" waitingTime="177.00" timeLoss="290.68" speed="6.38" speedRelative="0.41" departed="0" arrived="0" entered="50" left="50" laneChangedFrom="1" laneChangedTo="1"/>
        <edge id="-397" sampledSeconds="16711.53" traveltime="54.77" overlapTraveltime="55.57" density="45.83" laneDensity="11.46" occupancy="5.68" waitingTime="12580.00" timeLoss="14912.84" speed="1.91" speedRelative="0.11" departed="0" arrived="0" entered="301" left="301" laneChangedFrom="46" laneChangedTo="46"/>
        <edge id="-398" sampledSeconds="2185.99" traveltime="6.96" overlapTraveltime="7.27" density="6.30" laneDensity="2.10" occupancy="0.98" waitingTime="0.00" timeLoss="460.72" speed="13.94" speedRelative="0.78" departed="0" arrived="0" entered="301" left="301" laneChangedFrom="2" laneChangedTo="2"/>
        <edge id="-399" sampledSeconds="1152.94" traveltime="10.82" overlapTraveltime="11.31" density="3.52" laneDensity="0.70" occupancy="0.32" waitingTime="126.00" timeLoss="528.57" speed="8.49" speedRelative="0.54" departed="0" arrived="0" entered="102" left="101" laneChangedFrom="89" laneChangedTo="89"/>
        <edge id="-400" sampledSeconds="25699.14" traveltime="21.21" overlapTraveltime="21.45" density="18.42" laneDensity="9.21" occupancy="4.46" waitingTime="0.00" timeLoss="5286.95" speed="18.30" speedRelative="0.78" departed="0" arrived="1196" entered="1248" left="47" laneChangedFrom="48" laneChangedTo="48" teleported="47"/>
        <edge id="-401" sampledSeconds="2651.82" traveltime="8.52" overlapTraveltime="9.02" density="7.20" laneDensity="3.60" occupancy="1.63" waitingTime="68.00" timeLoss="866.95" speed="11.90" speedRelative="0.66" departed="0" arrived="0" entered="303" left="303" laneChangedFrom="1" laneChangedTo="1" teleported="9"/>
        <edge id="-402" sampledSeconds="11945.03" traveltime="39.27" overlapTraveltime="39.98" density="34.79" laneDensity="11.60" occupancy="5.73" waitingTime="8097.00" timeLoss="10277.20" speed="2.51" speedRelative="0.14" departed="0" arrived="0" entered="303" left="285" laneChangedFrom="1" laneChangedTo="1"/>
        <edge id="-403" sampledSeconds="18086.72" traveltime="16.40" overlapTraveltime="16.63" density="16.36" laneDensity="8.18" occupancy="3.98" waitingTime="0.00" timeLoss="3380.38" speed="18.77" speedRelative="0.80" departed="0" arrived="1089" entered="1131" left="42" laneChangedFrom="37" laneChangedTo="37" teleported="42"/>
        <edge id="-404" sampledSeconds="2523.84" traveltime="9.06" overlapTraveltime="9.84" density="17.50" laneDensity="5.83" occupancy="2.64" waitingTime="789.00" timeLoss="1950.88" speed="4.58" speedRelative="0.23" departed="0" arrived="0" entered="257" left="255" laneChangedFrom="273" laneChangedTo="273"/>
        <edge id="-405" sampledSeconds="0.00" departed="0" arrived="0" entered="0" left="0" laneChangedFrom="0" laneChangedTo="0"/>
        <edge id="-406" sampledSeconds="38786.42" traveltime="35.04" overlapTraveltime="35.80" density="29.01" laneDensity="9.67" occupancy="4.79" waitingTime="7940.00" timeLoss="21145.33" speed="10.52" speedRelative="0.45" departed="1104" arrived="0" entered="0" left="1088" laneChangedFrom="1668" laneChangedTo="1668"/>
        <edge id="-407" sampledSeconds="3918.07" traveltime="6.23" overlapTraveltime="6.55" density="12.64" laneDensity="6.32" occupancy="2.94" waitingTime="153.00" timeLoss="1212.91" speed="13.92" speedRelative="0.69" departed="0" arrived="0" entered="600" left="598" laneChangedFrom="72" laneChangedTo="72"/>
        <edge id="-408" sampledSeconds="121.85" traveltime="6.15" overlapTraveltime="6.46" density="0.54" laneDensity="0.54" occupancy="0.24" waitingTime="0.00" timeLoss="65.87" speed="10.45" speedRelative="0.45" departed="0" arrived="19" entered="19" left="0" laneChangedFrom="0" laneChangedTo="0"/>
        <edge id="-409" sampledSeconds="750.54" traveltime="4.68" overlapTraveltime="4.97" density="3.39" laneDensity="1.70" occupancy="0.76" waitingTime="0.00" timeLoss="238.47" speed="13.36" speedRelative="0.66" departed="0" arrived="152" entered="152" left="0" laneChangedFrom="2" laneChangedTo="2"/>
        <edge id="-410" sampledSeconds="359.92" traveltime="8.79" overlapTraveltime="9.03" density="0.82" laneDensity="0.82" occupancy="0.38" waitingTime="0.00" timeLoss="146.61" speed="14.12" speedRelative="0.61" departed="0" arrived="40" entered="40" left="0" laneChangedFrom="0" laneChangedTo="0"/>
        <edge id="-411" sampledSeconds="3587.55" traveltime="11.15" overlapTraveltime="11.81" density="24.88" laneDensity="12.44" occupancy="5.97" waitingTime="1930.00" timeLoss="2917.58" speed="3.81" speedRelative="0.19" departed="0" arrived="0" entered="306" left="302" laneChangedFrom="0" laneChangedTo="0"/>
        <edge id="-412" sampledSeconds="926.69" traveltime="7.11" overlapTraveltime="7.60" density="2.99" laneDensity="1.00" occupancy="0.47" waitingTime="159.00" timeLoss="360.96" speed="11.98" speedRelative="0.59" departed="0" arrived="0" entered="122" left="121" laneChangedFrom="11" laneChangedTo="11"/>
        <edge id="-413" sampledSeconds="5385.99" traveltime="12.51" overlapTraveltime="12.74" density="6.04" laneDensity="6.04" occupancy="2.93" waitingTime="0.00" timeLoss="776.85" speed="19.84" speedRelative="0.85" departed="0" arrived="423" entered="425" left="0" laneChangedFrom="0" laneChangedTo="0"/>
        <edge id="-414" sampledSeconds="13802.08" traveltime="24.23" overlapTraveltime="25.73" density="42.12" laneDensity="10.53" occupancy="5.08" waitingTime="710.00" timeLoss="10544.31" speed="3.73" speedRelative="0.24" departed="0" arrived="0" entered="540" left="539" laneChangedFrom="8" laneChangedTo="8"/>
        <edge id="-415" sampledSeconds="475.74" traveltime="6.68" overlapTraveltime="6.95" density="1.51" laneDensity="0.75" occupancy="0.35" waitingTime="0.00" timeLoss="196.08" speed="13.34" speedRelative="0.57" departed="0" arrived="68" entered="69" left="0" laneChangedFrom="1" laneChangedTo="1"/>
        <edge id="-416" sampledSeconds="297.86" traveltime="2.67" overlapTraveltime="3.01" density="2.42" laneDensity="1.21" occupancy="0.52" waitingTime="0.00" timeLoss="62.73" speed="12.99" speedRelative="0.83" departed="0" arrived="0" entered="99" left="99" laneChangedFrom="2" laneChangedTo="2"/>
        <edge id="-417" sampledSeconds="75.52" traveltime="9.33" overlapTraveltime="9.55" density="0.12" laneDensity="0.12" occupancy="0.06" waitingTime="0.00" timeLoss="15.03" speed="18.81" speedRelative="0.81" departed="0" arrived="8" entered="8" left="0" laneChangedFrom="0" laneChangedTo="0"/>
        <edge id="-418" sampledSeconds="2938.24" traveltime="28.82" overlapTraveltime="29.16" density="2.02" laneDensity="1.01" occupancy="0.49" waitingTime="0.00" timeLoss="305.14" speed="14.00" speedRelative="0.89" departed="0" arrived="101" entered="101" left="0" laneChangedFrom="45" laneChangedTo="45"/>
        <edge id="-419" sampledSeconds="6676.47" traveltime="24.76" overlapTraveltime="25.03" density="4.53" laneDensity="2.26" occupancy="1.10" waitingTime="0.00" timeLoss="1105.20" speed="16.57" speedRelative="0.82" departed="0" arrived="267" entered="270" left="2" laneChangedFrom="60" laneChangedTo="60" teleported="2"/>
        <edge id="-420" sampledSeconds="902.96" traveltime="4.48" overlapTraveltime="4.79" density="4.72" laneDensity="4.72" occupancy="2.10" waitingTime="0.00" timeLoss="427.69" speed="12.15" speedRelative="0.52" departed="0" arrived="191" entered="191" left="0" laneChangedFrom="0" laneChangedTo="0"/>
        <edge id="-421" sampledSeconds="5528.72" traveltime="5.29" overlapTraveltime="5.63" density="25.82" laneDensity="12.91" occupancy="5.77" waitingTime="5.00" timeLoss="1560.67" speed="11.45" speedRelative="0.73" departed="0" arrived="0" entered="1001" left="1000" laneChangedFrom="32" laneChangedTo="32" teleported="19"/>
        <edge id="-422" sampledSeconds="25717.63" traveltime="61.72" overlapTraveltime="62.59" density="17.44" laneDensity="5.81" occupancy="2.89" waitingTime="12475.00" timeLoss="17185.89" speed="6.62" speedRelative="0.33" departed="417" arrived="0" entered="0" left="413" laneChangedFrom="387" laneChangedTo="387"/>
        <edge id="-423" sampledSeconds="1449.69" traveltime="35.08" overlapTraveltime="36.47" density="6.44" laneDensity="3.22" occupancy="1.58" waitingTime="932.00" timeLoss="1330.35" speed="1.85" speedRelative="0.08" departed="43" arrived="0" entered="0" left="43" laneChangedFrom="17" laneChangedTo="17"/>
        <edge id="-424" sampledSeconds="47868.45" traveltime="57.75" overlapTraveltime="58.42" density="25.02" laneDensity="6.26" occupancy="3.11" waitingTime="16565.00" timeLoss="28776.65" speed="9.18" speedRelative="0.39" departed="831" arrived="0" entered="0" left="818" laneChangedFrom="1865" laneChangedTo="1865"/>
        <edge id="-425" sampledSeconds="0.00" departed="0" arrived="0" entered="0" left="0" laneChangedFrom="0" laneChangedTo="0"/>
        <edge id="-426" sampledSeconds="5257.86" traveltime="10.31" overlapTraveltime="10.76" density="23.76" laneDensity="7.92" occupancy="3.87" waitingTime="653.00" timeLoss="3635.13" speed="6.18" speedRelative="0.31" departed="530" arrived="0" entered="0" left="529" laneChangedFrom="61" laneChangedTo="61"/>
        <edge id="-427" sampledSeconds="133.20" traveltime="4.24" overlapTraveltime="4.76" density="0.77" laneDensity="0.26" occupancy="0.12" waitingTime="15.00" timeLoss="38.77" speed="11.19" speedRelative="0.71" departed="0" arrived="0" entered="28" left="28" laneChangedFrom="1" laneChangedTo="1"/>
        <edge id="-428" sampledSeconds="41.15" traveltime="1.47" overlapTraveltime="1.75" density="0.48" laneDensity="0.48" occupancy="0.20" waitingTime="0.00" timeLoss="11.87" speed="16.48" speedRelative="0.71" departed="0" arrived="24" entered="24" left="0" laneChangedFrom="0" laneChangedTo="0"/>
        <edge id="-429" sampledSeconds="4324.16" traveltime="7.10" overlapTraveltime="7.46" density="11.88" laneDensity="3.96" occupancy="1.89" waitingTime="0.00" timeLoss="340.37" speed="14.23" speedRelative="0.90" departed="0" arrived="0" entered="581" left="580" laneChangedFrom="87" laneChangedTo="87"/>
        <edge id="-430" sampledSeconds="3440.38" traveltime="5.52" overlapTraveltime="5.94" density="13.09" laneDensity="2.62" occupancy="1.22" waitingTime="28.00" timeLoss="512.59" speed="13.14" speedRelative="0.84" departed="0" arrived="0" entered="580" left="578" laneChangedFrom="141" laneChangedTo="141"/>
        <edge id="-431" sampledSeconds="0.00" departed="0" arrived="0" entered="0" left="0" laneChangedFrom="0" laneChangedTo="0"/>
        <edge id="-432" sampledSeconds="2900.24" traveltime="74.24" overlapTraveltime="74.15" density="34.40" laneDensity="17.20" occupancy="8.53" waitingTime="2499.00" timeLoss="2846.94" speed="0.38" speedRelative="0.02" departed="49" arrived="0" entered="0" left="48" laneChangedFrom="25" laneChangedTo="25"/>
        <edge id="-433" sampledSeconds="3994.22" traveltime="38.30" overlapTraveltime="39.58" density="12.63" laneDensity="6.32" occupancy="3.11" waitingTime="2497.00" timeLoss="3580.54" speed="2.35" speedRelative="0.10" departed="107" arrived="0" entered="0" left="106" laneChangedFrom="10" laneChangedTo="10"/>
        <edge id="-434" sampledSeconds="67712.00" traveltime="2502.84" overlapTraveltime="2645.60" density="214.57" laneDensity="71.52" occupancy="35.76" waitingTime="66376.00" timeLoss="67610.93" speed="0.04" speedRelative="0.00" departed="40" arrived="0" entered="0" left="19" laneChangedFrom="22" laneChangedTo="22" teleported="19"/>
        <edge id="-435" sampledSeconds="0.00" departed="0" arrived="0" entered="0" left="0" laneChangedFrom="0" laneChangedTo="0"/>
        <edge id="-436" sampledSeconds="2452.41" traveltime="3.73" overlapTraveltime="4.26" density="19.94" laneDensity="3.99" occupancy="1.77" waitingTime="259.00" timeLoss="1001.88" speed="9.20" speedRelative="0.58" departed="0" arrived="0" entered="578" left="574" laneChangedFrom="6" laneChangedTo="6"/>
        <edge id="-437" sampledSeconds="167.91" traveltime="2.90" overlapTraveltime="3.23" density="1.08" laneDensity="0.54" occupancy="0.24" waitingTime="0.00" timeLoss="14.21" speed="14.94" speedRelative="0.95" departed="0" arrived="0" entered="52" left="52" laneChangedFrom="0" laneChangedTo="0"/>
        <edge id="-438" sampledSeconds="450.64" traveltime="8.33" overlapTraveltime="8.67" density="1.01" laneDensity="0.51" occupancy="0.24" waitingTime="0.00" timeLoss="24.41" speed="14.84" speedRelative="0.94" departed="0" arrived="0" entered="52" left="52" laneChangedFrom="18" laneChangedTo="18"/>
        <edge id="-439" sampledSeconds="78.79" traveltime="1.45" overlapTraveltime="1.74" density="0.95" laneDensity="0.95" occupancy="0.40" waitingTime="0.00" timeLoss="23.76" speed="16.10" speedRelative="0.69" departed="0" arrived="47" entered="47" left="0" laneChangedFrom="0" laneChangedTo="0"/>
        <edge id="-440" sampledSeconds="24394.01" traveltime="207.88" overlapTraveltime="209.42" density="55.32" laneDensity="27.66" occupancy="13.80" waitingTime="21250.00" timeLoss="23743.52" speed="0.61" speedRelative="0.03" departed="122" arrived="0" entered="0" left="118" laneChangedFrom="76" laneChangedTo="76" teleported="2"/>
        <edge id="-441" sampledSeconds="982.78" traveltime="44.41" overlapTraveltime="45.98" density="1.56" laneDensity="0.78" occupancy="0.38" waitingTime="576.00" timeLoss="817.93" speed="3.91" speedRelative="0.17" departed="22" arrived="0" entered="0" left="22" laneChangedFrom="3" laneChangedTo="3"/>
        <edge id="-442" sampledSeconds="15660.13" traveltime="46.65" overlapTraveltime="47.71" density="81.78" laneDensity="20.45" occupancy="10.10" waitingTime="11138.00" timeLoss="14796.33" speed="1.22" speedRelative="0.05" departed="363" arrived="0" entered="0" left="353" laneChangedFrom="420" laneChangedTo="420"/>
        <edge id="-443" sampledSeconds="2117.08" traveltime="3.81" overlapTraveltime="4.19" density="10.66" laneDensity="5.33" occupancy="2.44" waitingTime="4.00" timeLoss="148.43" speed="14.38" speedRelative="0.91" departed="0" arrived="0" entered="507" left="505" laneChangedFrom="93" laneChangedTo="93"/>
        <edge id="-444" sampledSeconds="2987.80" traveltime="5.39" overlapTraveltime="5.91" density="21.23" laneDensity="7.08" occupancy="3.28" waitingTime="768.00" timeLoss="1549.59" speed="7.46" speedRelative="0.47" departed="0" arrived="0" entered="507" left="507" laneChangedFrom="27" laneChangedTo="27"/>
        <edge id="-445" sampledSeconds="217.44" traveltime="8.91" overlapTraveltime="9.93" density="1.02" laneDensity="0.25" occupancy="0.12" waitingTime="71.00" timeLoss="127.95" speed="6.49" speedRelative="0.41" departed="0" arrived="0" entered="22" left="22" laneChangedFrom="0" laneChangedTo="0"/>
        <edge id="-446" sampledSeconds="670.96" traveltime="1.03" overlapTraveltime="1.35" density="12.90" laneDensity="12.90" occupancy="4.83" waitingTime="0.00" timeLoss="249.16" speed="14.45" speedRelative="0.62" departed="0" arrived="521" entered="521" left="0" laneChangedFrom="0" laneChangedTo="0"/>
        <edge id="-447" sampledSeconds="0.00" departed="0" arrived="0" entered="0" left="0" laneChangedFrom="0" laneChangedTo="0"/>
        <edge id="-448" sampledSeconds="0.00" departed="0" arrived="0" entered="0" left="0" laneChangedFrom="0" laneChangedTo="0"/>
    </interval>
</meandata>
