<?xml version="1.0" encoding="UTF-8"?>

<!-- generated on 2025-05-29 11:54:25 by Eclipse SUMO sumo Version 1.21.0
<sumoConfiguration xmlns:xsi="http://www.w3.org/2001/XMLSchema-instance" xsi:noNamespaceSchemaLocation="http://sumo.dlr.de/xsd/sumoConfiguration.xsd">

    <input>
        <net-file value="chatt.net.xml"/>
        <route-files value="chatt.rou.xml"/>
        <additional-files value="Edge.add.xml"/>
    </input>

    <time>
        <begin value="28800"/>
        <end value="32400"/>
        <step-length value="1"/>
    </time>

    <report>
        <no-warnings value="true"/>
        <no-step-log value="true"/>
    </report>

    <random_number>
        <seed value="812"/>
    </random_number>

    <gui_only>
        <start value="t"/>
    </gui_only>

</sumoConfiguration>
-->

<meandata xmlns:xsi="http://www.w3.org/2001/XMLSchema-instance" xsi:noNamespaceSchemaLocation="http://sumo.dlr.de/xsd/meandata_file.xsd">
    <interval begin="28800.00" end="32400.00" id="1">
        <edge id="-280" sampledSeconds="11216.29" traveltime="13.63" overlapTraveltime="14.39" density="112.03" laneDensity="37.34" occupancy="17.47" waitingTime="7300.00" timeLoss="9532.45" speed="2.28" speedRelative="0.14" departed="0" arrived="0" entered="780" left="779" laneChangedFrom="16" laneChangedTo="16"/>
        <edge id="-2801" sampledSeconds="30682.00" traveltime="39.06" overlapTraveltime="39.78" density="24.22" laneDensity="12.11" occupancy="5.99" waitingTime="4767.25" timeLoss="13019.68" speed="8.97" speedRelative="0.57" departed="785" arrived="0" entered="0" left="781" laneChangedFrom="206" laneChangedTo="206"/>
        <edge id="-281" sampledSeconds="730.16" traveltime="2.18" overlapTraveltime="2.54" density="7.84" laneDensity="2.61" occupancy="1.08" waitingTime="0.00" timeLoss="170.05" speed="12.13" speedRelative="0.77" departed="0" arrived="0" entered="287" left="287" laneChangedFrom="85" laneChangedTo="85"/>
        <edge id="-282" sampledSeconds="36.50" traveltime="0.82" overlapTraveltime="1.28" density="1.22" laneDensity="1.22" occupancy="0.40" waitingTime="0.00" timeLoss="19.78" speed="10.42" speedRelative="0.45" departed="0" arrived="32" entered="32" left="0" laneChangedFrom="0" laneChangedTo="0"/>
        <edge id="-283" sampledSeconds="239.89" traveltime="5.21" overlapTraveltime="5.48" density="0.91" laneDensity="0.91" occupancy="0.42" waitingTime="0.00" timeLoss="94.72" speed="14.21" speedRelative="0.61" departed="0" arrived="44" entered="44" left="0" laneChangedFrom="0" laneChangedTo="0"/>
        <edge id="-284" sampledSeconds="724.79" traveltime="1.74" overlapTraveltime="2.08" density="8.47" laneDensity="4.24" occupancy="1.75" waitingTime="0.00" timeLoss="86.80" speed="13.81" speedRelative="0.88" departed="0" arrived="0" entered="348" left="348" laneChangedFrom="13" laneChangedTo="13"/>
        <edge id="-2841" sampledSeconds="1752.08" traveltime="3.42" overlapTraveltime="5.04" density="10.97" laneDensity="3.66" occupancy="1.61" waitingTime="438.00" timeLoss="634.91" speed="9.81" speedRelative="0.62" departed="0" arrived="0" entered="348" left="348" laneChangedFrom="6" laneChangedTo="6"/>
        <edge id="-285" sampledSeconds="28513.31" traveltime="40.74" overlapTraveltime="41.50" density="93.84" laneDensity="23.46" occupancy="11.54" waitingTime="19827.00" timeLoss="24918.52" speed="2.15" speedRelative="0.12" departed="0" arrived="0" entered="691" left="679" laneChangedFrom="351" laneChangedTo="351"/>
        <edge id="-2851" sampledSeconds="5538.72" traveltime="7.51" overlapTraveltime="8.00" density="18.85" laneDensity="6.28" occupancy="2.92" waitingTime="621.00" timeLoss="2183.75" speed="10.83" speedRelative="0.61" departed="0" arrived="0" entered="693" left="691" laneChangedFrom="37" laneChangedTo="37"/>
        <edge id="-286" sampledSeconds="4466.73" traveltime="8.30" overlapTraveltime="8.88" density="18.18" laneDensity="3.64" occupancy="1.70" waitingTime="798.00" timeLoss="2100.86" speed="8.25" speedRelative="0.52" departed="0" arrived="0" entered="503" left="503" laneChangedFrom="70" laneChangedTo="70"/>
        <edge id="-287" sampledSeconds="10688.76" traveltime="19.35" overlapTraveltime="19.58" density="8.01" laneDensity="4.01" occupancy="1.96" waitingTime="0.00" timeLoss="1760.09" speed="19.18" speedRelative="0.82" departed="0" arrived="547" entered="547" left="0" laneChangedFrom="9" laneChangedTo="9"/>
        <edge id="-288" sampledSeconds="13496.07" traveltime="20.43" overlapTraveltime="21.44" density="44.56" laneDensity="22.28" occupancy="10.67" waitingTime="3129.00" timeLoss="10308.16" speed="4.16" speedRelative="0.23" departed="0" arrived="0" entered="635" left="624" laneChangedFrom="45" laneChangedTo="45"/>
        <edge id="-2881" sampledSeconds="22708.66" traveltime="34.94" overlapTraveltime="36.79" density="77.57" laneDensity="25.86" occupancy="12.48" waitingTime="7898.00" timeLoss="19404.21" speed="2.35" speedRelative="0.13" departed="0" arrived="0" entered="623" left="611" laneChangedFrom="45" laneChangedTo="45"/>
        <edge id="-289" sampledSeconds="11388.18" traveltime="15.26" overlapTraveltime="15.49" density="10.90" laneDensity="5.45" occupancy="2.67" waitingTime="0.00" timeLoss="2068.62" speed="19.06" speedRelative="0.82" departed="0" arrived="737" entered="737" left="0" laneChangedFrom="15" laneChangedTo="15"/>
        <edge id="-290" sampledSeconds="51.19" traveltime="1.76" overlapTraveltime="3.20" density="0.74" laneDensity="0.25" occupancy="0.08" waitingTime="11.00" timeLoss="29.46" speed="7.58" speedRelative="0.37" departed="0" arrived="0" entered="16" left="16" laneChangedFrom="5" laneChangedTo="5"/>
        <edge id="-291" sampledSeconds="0.00" departed="0" arrived="0" entered="0" left="0" laneChangedFrom="0" laneChangedTo="0"/>
        <edge id="-292" sampledSeconds="33994.73" traveltime="125.22" overlapTraveltime="126.24" density="26.72" laneDensity="8.91" occupancy="4.44" waitingTime="21213.00" timeLoss="29660.62" speed="2.84" speedRelative="0.12" departed="285" arrived="0" entered="0" left="255" laneChangedFrom="619" laneChangedTo="619"/>
        <edge id="-293" sampledSeconds="8112.71" traveltime="12.92" overlapTraveltime="13.71" density="33.37" laneDensity="16.68" occupancy="7.99" waitingTime="3369.00" timeLoss="5774.05" speed="5.29" speedRelative="0.26" departed="0" arrived="0" entered="594" left="588" laneChangedFrom="84" laneChangedTo="84"/>
        <edge id="-294" sampledSeconds="53.07" traveltime="3.81" overlapTraveltime="4.12" density="0.30" laneDensity="0.30" occupancy="0.14" waitingTime="0.00" timeLoss="22.53" speed="13.05" speedRelative="0.56" departed="0" arrived="13" entered="13" left="0" laneChangedFrom="0" laneChangedTo="0"/>
        <edge id="-295" sampledSeconds="200.15" traveltime="4.00" overlapTraveltime="4.31" density="1.09" laneDensity="0.55" occupancy="0.25" waitingTime="0.00" timeLoss="72.98" speed="12.96" speedRelative="0.64" departed="0" arrived="47" entered="47" left="0" laneChangedFrom="0" laneChangedTo="0"/>
        <edge id="-296" sampledSeconds="230.69" traveltime="6.78" overlapTraveltime="7.02" density="0.60" laneDensity="0.60" occupancy="0.28" waitingTime="0.00" timeLoss="68.26" speed="16.00" speedRelative="0.69" departed="0" arrived="33" entered="33" left="0" laneChangedFrom="0" laneChangedTo="0"/>
        <edge id="-297" sampledSeconds="7166.02" traveltime="14.72" overlapTraveltime="15.74" density="103.35" laneDensity="51.68" occupancy="24.17" waitingTime="5024.00" timeLoss="6548.40" speed="1.54" speedRelative="0.08" departed="0" arrived="0" entered="458" left="454" laneChangedFrom="58" laneChangedTo="58"/>
        <edge id="-298" sampledSeconds="99.87" traveltime="8.59" overlapTraveltime="9.08" density="0.41" laneDensity="0.14" occupancy="0.07" waitingTime="49.00" timeLoss="59.81" speed="7.99" speedRelative="0.39" departed="0" arrived="0" entered="11" left="11" laneChangedFrom="0" laneChangedTo="0"/>
        <edge id="-299" sampledSeconds="3837.79" traveltime="13.81" overlapTraveltime="14.04" density="4.49" laneDensity="4.49" occupancy="2.17" waitingTime="0.00" timeLoss="963.56" speed="17.27" speedRelative="0.74" departed="0" arrived="274" entered="274" left="0" laneChangedFrom="0" laneChangedTo="0"/>
        <edge id="-300" sampledSeconds="4024.70" traveltime="9.04" overlapTraveltime="10.43" density="16.38" laneDensity="4.10" occupancy="1.89" waitingTime="488.00" timeLoss="2248.59" speed="7.02" speedRelative="0.45" departed="0" arrived="0" entered="388" left="384" laneChangedFrom="209" laneChangedTo="209"/>
        <edge id="-301" sampledSeconds="242.63" traveltime="4.72" overlapTraveltime="4.99" density="1.01" laneDensity="0.50" occupancy="0.23" waitingTime="0.00" timeLoss="90.30" speed="14.40" speedRelative="0.62" departed="0" arrived="49" entered="49" left="0" laneChangedFrom="0" laneChangedTo="0"/>
        <edge id="-302" sampledSeconds="745.25" traveltime="1.10" overlapTraveltime="1.49" density="15.10" laneDensity="7.55" occupancy="2.76" waitingTime="0.00" timeLoss="144.47" speed="12.52" speedRelative="0.80" departed="0" arrived="0" entered="499" left="499" laneChangedFrom="13" laneChangedTo="13"/>
        <edge id="-303" sampledSeconds="385.21" traveltime="8.56" overlapTraveltime="8.79" density="0.69" laneDensity="0.69" occupancy="0.33" waitingTime="0.00" timeLoss="85.01" speed="18.15" speedRelative="0.78" departed="0" arrived="44" entered="44" left="0" laneChangedFrom="0" laneChangedTo="0"/>
        <edge id="-304" sampledSeconds="7257.79" traveltime="26.67" overlapTraveltime="27.00" density="5.20" laneDensity="2.60" occupancy="1.28" waitingTime="0.00" timeLoss="482.08" speed="14.55" speedRelative="0.92" departed="0" arrived="269" entered="270" left="0" laneChangedFrom="83" laneChangedTo="83"/>
        <edge id="-305" sampledSeconds="9139.45" traveltime="21.97" overlapTraveltime="22.23" density="6.42" laneDensity="3.21" occupancy="1.58" waitingTime="0.00" timeLoss="1023.81" speed="18.02" speedRelative="0.89" departed="0" arrived="411" entered="412" left="0" laneChangedFrom="52" laneChangedTo="52"/>
        <edge id="-306" sampledSeconds="693.58" traveltime="2.87" overlapTraveltime="3.18" density="4.96" laneDensity="4.96" occupancy="2.21" waitingTime="0.00" timeLoss="277.25" speed="13.80" speedRelative="0.59" departed="0" arrived="223" entered="223" left="0" laneChangedFrom="0" laneChangedTo="0"/>
        <edge id="-307" sampledSeconds="5053.82" traveltime="4.38" overlapTraveltime="5.12" density="39.85" laneDensity="19.92" occupancy="8.69" waitingTime="2.00" timeLoss="2032.54" speed="7.86" speedRelative="0.50" departed="0" arrived="0" entered="989" left="987" laneChangedFrom="46" laneChangedTo="46"/>
        <edge id="-308" sampledSeconds="25419.09" traveltime="61.53" overlapTraveltime="62.40" density="17.85" laneDensity="5.95" occupancy="2.96" waitingTime="12088.00" timeLoss="17195.15" speed="6.42" speedRelative="0.32" departed="417" arrived="0" entered="0" left="405" laneChangedFrom="341" laneChangedTo="341"/>
        <edge id="-309" sampledSeconds="1565.19" traveltime="39.05" overlapTraveltime="40.21" density="8.90" laneDensity="4.45" occupancy="2.19" waitingTime="1118.00" timeLoss="1461.27" speed="1.34" speedRelative="0.06" departed="43" arrived="0" entered="0" left="43" laneChangedFrom="26" laneChangedTo="26"/>
        <edge id="-310" sampledSeconds="39230.86" traveltime="51.17" overlapTraveltime="51.99" density="21.16" laneDensity="5.29" occupancy="2.63" waitingTime="12684.00" timeLoss="21939.17" speed="10.00" speedRelative="0.43" departed="765" arrived="0" entered="0" left="748" laneChangedFrom="1410" laneChangedTo="1410"/>
        <edge id="-311" sampledSeconds="0.00" departed="0" arrived="0" entered="0" left="0" laneChangedFrom="0" laneChangedTo="0"/>
        <edge id="-312" sampledSeconds="4927.08" traveltime="9.77" overlapTraveltime="10.25" density="26.92" laneDensity="8.97" occupancy="4.37" waitingTime="821.00" timeLoss="3570.76" speed="5.45" speedRelative="0.27" departed="530" arrived="0" entered="0" left="529" laneChangedFrom="280" laneChangedTo="280"/>
        <edge id="-313" sampledSeconds="1713.04" traveltime="4.15" overlapTraveltime="4.72" density="18.39" laneDensity="6.13" occupancy="2.70" waitingTime="402.00" timeLoss="984.26" speed="6.54" speedRelative="0.42" departed="0" arrived="0" entered="363" left="363" laneChangedFrom="122" laneChangedTo="122"/>
        <edge id="-314" sampledSeconds="988.04" traveltime="1.82" overlapTraveltime="2.36" density="19.80" laneDensity="19.80" occupancy="7.27" waitingTime="0.00" timeLoss="646.10" speed="8.01" speedRelative="0.34" departed="0" arrived="439" entered="439" left="0" laneChangedFrom="0" laneChangedTo="0"/>
        <edge id="-315" sampledSeconds="1733.53" traveltime="5.52" overlapTraveltime="5.86" density="5.93" laneDensity="1.98" occupancy="0.93" waitingTime="0.00" timeLoss="120.48" speed="14.72" speedRelative="0.94" departed="0" arrived="0" entered="296" left="296" laneChangedFrom="76" laneChangedTo="76"/>
        <edge id="-3151" sampledSeconds="1349.97" traveltime="4.19" overlapTraveltime="4.58" density="6.47" laneDensity="1.29" occupancy="0.60" waitingTime="19.00" timeLoss="178.37" speed="13.73" speedRelative="0.87" departed="0" arrived="0" entered="296" left="292" laneChangedFrom="8" laneChangedTo="8"/>
        <edge id="-316" sampledSeconds="2151.01" traveltime="15.71" overlapTraveltime="16.02" density="43.11" laneDensity="21.55" occupancy="10.11" waitingTime="851.00" timeLoss="1942.25" speed="1.18" speedRelative="0.05" departed="184" arrived="0" entered="0" left="184" laneChangedFrom="9" laneChangedTo="9"/>
        <edge id="-317" sampledSeconds="1773.65" traveltime="89.57" overlapTraveltime="59.51" density="59.15" laneDensity="29.57" occupancy="14.51" waitingTime="1570.00" timeLoss="1739.20" speed="0.22" speedRelative="0.01" departed="49" arrived="0" entered="0" left="48" laneChangedFrom="29" laneChangedTo="29"/>
        <edge id="-318" sampledSeconds="3434.50" traveltime="32.94" overlapTraveltime="34.35" density="13.12" laneDensity="6.56" occupancy="3.22" waitingTime="2048.00" timeLoss="3053.55" speed="2.26" speedRelative="0.10" departed="107" arrived="0" entered="0" left="107" laneChangedFrom="13" laneChangedTo="13"/>
        <edge id="-319" sampledSeconds="23191.92" traveltime="148.74" overlapTraveltime="149.34" density="94.34" laneDensity="31.45" occupancy="15.66" waitingTime="20420.00" timeLoss="22656.33" speed="0.49" speedRelative="0.02" departed="167" arrived="0" entered="0" left="166" laneChangedFrom="179" laneChangedTo="179"/>
        <edge id="-320" sampledSeconds="2660.56" traveltime="26.18" overlapTraveltime="25.87" density="46.39" laneDensity="46.39" occupancy="22.33" waitingTime="1583.00" timeLoss="2489.87" speed="0.81" speedRelative="0.03" departed="136" arrived="0" entered="0" left="136" laneChangedFrom="0" laneChangedTo="0"/>
        <edge id="-321" sampledSeconds="1000.07" traveltime="2.89" overlapTraveltime="3.46" density="20.26" laneDensity="4.05" occupancy="1.74" waitingTime="364.00" timeLoss="651.56" speed="5.41" speedRelative="0.34" departed="0" arrived="0" entered="292" left="289" laneChangedFrom="24" laneChangedTo="24"/>
        <edge id="-322" sampledSeconds="2438.14" traveltime="3.16" overlapTraveltime="3.89" density="22.07" laneDensity="11.04" occupancy="4.71" waitingTime="0.00" timeLoss="735.25" speed="9.18" speedRelative="0.58" departed="0" arrived="0" entered="627" left="627" laneChangedFrom="0" laneChangedTo="0"/>
        <edge id="-3221" sampledSeconds="5672.63" traveltime="8.63" overlapTraveltime="9.05" density="13.57" laneDensity="6.78" occupancy="3.23" waitingTime="0.00" timeLoss="817.40" speed="13.39" speedRelative="0.85" departed="0" arrived="0" entered="628" left="627" laneChangedFrom="50" laneChangedTo="50"/>
        <edge id="-323" sampledSeconds="18.76" traveltime="2.22" overlapTraveltime="2.75" density="0.33" laneDensity="0.33" occupancy="0.12" waitingTime="0.00" timeLoss="12.19" speed="7.61" speedRelative="0.33" departed="0" arrived="7" entered="7" left="0" laneChangedFrom="0" laneChangedTo="0"/>
        <edge id="-324" sampledSeconds="38815.32" traveltime="353.22" overlapTraveltime="355.57" density="96.55" laneDensity="48.28" occupancy="24.10" waitingTime="34366.00" timeLoss="38227.27" speed="0.33" speedRelative="0.01" departed="122" arrived="0" entered="0" left="104" laneChangedFrom="84" laneChangedTo="84" teleported="2"/>
        <edge id="-325" sampledSeconds="829.97" traveltime="37.39" overlapTraveltime="38.97" density="1.49" laneDensity="0.75" occupancy="0.37" waitingTime="442.00" timeLoss="675.21" speed="4.09" speedRelative="0.18" departed="22" arrived="0" entered="0" left="22" laneChangedFrom="1" laneChangedTo="1"/>
        <edge id="-326" sampledSeconds="15273.21" traveltime="47.38" overlapTraveltime="48.08" density="109.51" laneDensity="27.38" occupancy="13.51" waitingTime="11548.00" timeLoss="14567.27" speed="0.91" speedRelative="0.04" departed="362" arrived="0" entered="0" left="357" laneChangedFrom="465" laneChangedTo="465"/>
        <edge id="-327" sampledSeconds="711.27" traveltime="3.32" overlapTraveltime="3.67" density="4.50" laneDensity="2.25" occupancy="1.00" waitingTime="0.00" timeLoss="109.13" speed="13.32" speedRelative="0.85" departed="0" arrived="0" entered="194" left="194" laneChangedFrom="10" laneChangedTo="10"/>
        <edge id="-3271" sampledSeconds="809.62" traveltime="3.63" overlapTraveltime="4.20" density="9.27" laneDensity="3.09" occupancy="1.38" waitingTime="226.00" timeLoss="447.96" speed="6.97" speedRelative="0.44" departed="0" arrived="0" entered="194" left="193" laneChangedFrom="23" laneChangedTo="23"/>
        <edge id="-328" sampledSeconds="4907.65" traveltime="12.71" overlapTraveltime="13.83" density="38.71" laneDensity="9.68" occupancy="4.60" waitingTime="2742.00" timeLoss="3939.77" speed="2.91" speedRelative="0.18" departed="0" arrived="0" entered="355" left="355" laneChangedFrom="61" laneChangedTo="61"/>
        <edge id="-329" sampledSeconds="1165.42" traveltime="0.85" overlapTraveltime="1.45" density="51.96" laneDensity="51.96" occupancy="14.81" waitingTime="0.00" timeLoss="775.28" speed="7.75" speedRelative="0.33" departed="0" arrived="895" entered="895" left="0" laneChangedFrom="0" laneChangedTo="0"/>
        <edge id="-330" sampledSeconds="1179.64" traveltime="48.48" overlapTraveltime="19.44" density="52.60" laneDensity="52.60" occupancy="24.50" waitingTime="778.00" timeLoss="1102.62" speed="0.58" speedRelative="0.02" departed="112" arrived="0" entered="0" left="111" laneChangedFrom="0" laneChangedTo="0"/>
        <edge id="-331" sampledSeconds="5780.82" traveltime="39.68" overlapTraveltime="41.44" density="6.67" laneDensity="6.67" occupancy="3.27" waitingTime="2125.00" timeLoss="4210.68" speed="5.93" speedRelative="0.25" departed="144" arrived="0" entered="0" left="140" laneChangedFrom="0" laneChangedTo="0"/>
    </interval>
</meandata>
