<?xml version="1.0" encoding="UTF-8"?>

<!-- generated on 2025-05-27 17:02:25 by Eclipse SUMO sumo Version 1.21.0
<sumoConfiguration xmlns:xsi="http://www.w3.org/2001/XMLSchema-instance" xsi:noNamespaceSchemaLocation="http://sumo.dlr.de/xsd/sumoConfiguration.xsd">

    <input>
        <net-file value="chatt.net.xml"/>
        <route-files value="chatt.rou.xml"/>
        <additional-files value="Edge.add.xml"/>
    </input>

    <time>
        <begin value="28800"/>
        <end value="32400"/>
        <step-length value="1"/>
    </time>

    <report>
        <no-warnings value="true"/>
        <no-step-log value="true"/>
    </report>

    <random_number>
        <seed value="812"/>
    </random_number>

    <gui_only>
        <start value="t"/>
    </gui_only>

</sumoConfiguration>
-->

<meandata xmlns:xsi="http://www.w3.org/2001/XMLSchema-instance" xsi:noNamespaceSchemaLocation="http://sumo.dlr.de/xsd/meandata_file.xsd">
    <interval begin="28800.00" end="32400.00" id="1">
        <edge id="-280" sampledSeconds="10084.11" traveltime="12.18" overlapTraveltime="12.90" density="100.72" laneDensity="33.57" occupancy="15.64" waitingTime="6225.00" timeLoss="8400.45" speed="2.54" speedRelative="0.16" departed="0" arrived="0" entered="782" left="782" laneChangedFrom="17" laneChangedTo="17"/>
        <edge id="-2801" sampledSeconds="30044.51" traveltime="38.21" overlapTraveltime="38.92" density="23.71" laneDensity="11.86" occupancy="5.87" waitingTime="4202.07" timeLoss="12420.73" speed="9.17" speedRelative="0.58" departed="785" arrived="0" entered="0" left="782" laneChangedFrom="161" laneChangedTo="161"/>
        <edge id="-281" sampledSeconds="403.63" traveltime="2.58" overlapTraveltime="2.98" density="4.33" laneDensity="1.44" occupancy="0.60" waitingTime="0.00" timeLoss="133.81" speed="10.37" speedRelative="0.66" departed="0" arrived="0" entered="136" left="136" laneChangedFrom="75" laneChangedTo="75"/>
        <edge id="-282" sampledSeconds="41.82" traveltime="0.77" overlapTraveltime="1.20" density="1.39" laneDensity="1.39" occupancy="0.45" waitingTime="0.00" timeLoss="22.28" speed="11.10" speedRelative="0.48" departed="0" arrived="38" entered="38" left="0" laneChangedFrom="0" laneChangedTo="0"/>
        <edge id="-283" sampledSeconds="188.15" traveltime="5.00" overlapTraveltime="5.27" density="0.72" laneDensity="0.72" occupancy="0.33" waitingTime="0.00" timeLoss="71.86" speed="14.77" speedRelative="0.63" departed="0" arrived="36" entered="36" left="0" laneChangedFrom="0" laneChangedTo="0"/>
        <edge id="-284" sampledSeconds="3922.27" traveltime="9.36" overlapTraveltime="12.90" density="45.86" laneDensity="22.93" occupancy="9.55" waitingTime="2666.00" timeLoss="3358.88" speed="2.23" speedRelative="0.14" departed="0" arrived="0" entered="304" left="304" laneChangedFrom="12" laneChangedTo="12"/>
        <edge id="-2841" sampledSeconds="12399.78" traveltime="33.42" overlapTraveltime="40.92" density="77.61" laneDensity="25.87" occupancy="11.54" waitingTime="9504.40" timeLoss="11381.35" speed="1.21" speedRelative="0.08" departed="0" arrived="0" entered="304" left="302" laneChangedFrom="20" laneChangedTo="20"/>
        <edge id="-285" sampledSeconds="19798.10" traveltime="36.04" overlapTraveltime="36.76" density="65.16" laneDensity="16.29" occupancy="8.04" waitingTime="13433.00" timeLoss="16959.08" speed="2.43" speedRelative="0.14" departed="0" arrived="0" entered="541" left="531" laneChangedFrom="301" laneChangedTo="301"/>
        <edge id="-2851" sampledSeconds="3587.46" traveltime="6.32" overlapTraveltime="6.63" density="12.21" laneDensity="4.07" occupancy="1.88" waitingTime="0.00" timeLoss="942.21" speed="13.07" speedRelative="0.73" departed="0" arrived="0" entered="541" left="541" laneChangedFrom="42" laneChangedTo="42"/>
        <edge id="-286" sampledSeconds="4345.23" traveltime="8.08" overlapTraveltime="8.64" density="17.69" laneDensity="3.54" occupancy="1.66" waitingTime="644.00" timeLoss="1974.88" speed="8.48" speedRelative="0.54" departed="0" arrived="0" entered="503" left="503" laneChangedFrom="79" laneChangedTo="79"/>
        <edge id="-287" sampledSeconds="12199.01" traveltime="19.38" overlapTraveltime="19.61" density="9.14" laneDensity="4.57" occupancy="2.24" waitingTime="0.00" timeLoss="2017.38" speed="19.15" speedRelative="0.82" departed="0" arrived="623" entered="623" left="0" laneChangedFrom="12" laneChangedTo="12"/>
        <edge id="-288" sampledSeconds="10309.02" traveltime="14.43" overlapTraveltime="15.15" density="34.03" laneDensity="17.02" occupancy="8.13" waitingTime="2233.00" timeLoss="6868.56" speed="5.88" speedRelative="0.33" departed="0" arrived="0" entered="686" left="674" laneChangedFrom="50" laneChangedTo="50"/>
        <edge id="-2881" sampledSeconds="18123.65" traveltime="25.77" overlapTraveltime="27.15" density="61.91" laneDensity="20.64" occupancy="9.95" waitingTime="5949.00" timeLoss="14558.83" speed="3.18" speedRelative="0.18" departed="0" arrived="0" entered="673" left="662" laneChangedFrom="12" laneChangedTo="12"/>
        <edge id="-289" sampledSeconds="9150.61" traveltime="15.18" overlapTraveltime="15.41" density="8.76" laneDensity="4.38" occupancy="2.14" waitingTime="0.00" timeLoss="1588.96" speed="19.16" speedRelative="0.82" departed="0" arrived="595" entered="595" left="0" laneChangedFrom="13" laneChangedTo="13"/>
        <edge id="-290" sampledSeconds="65.03" traveltime="5.05" overlapTraveltime="7.23" density="0.94" laneDensity="0.31" occupancy="0.12" waitingTime="36.00" timeLoss="51.31" speed="3.36" speedRelative="0.17" departed="0" arrived="0" entered="9" left="9" laneChangedFrom="5" laneChangedTo="5"/>
        <edge id="-291" sampledSeconds="0.00" departed="0" arrived="0" entered="0" left="0" laneChangedFrom="0" laneChangedTo="0"/>
        <edge id="-292" sampledSeconds="30188.95" traveltime="107.56" overlapTraveltime="108.54" density="23.72" laneDensity="7.91" occupancy="3.94" waitingTime="17992.00" timeLoss="25670.85" speed="3.30" speedRelative="0.14" departed="285" arrived="0" entered="0" left="272" laneChangedFrom="627" laneChangedTo="627"/>
        <edge id="-293" sampledSeconds="8875.75" traveltime="14.26" overlapTraveltime="14.93" density="36.50" laneDensity="18.25" occupancy="8.80" waitingTime="3690.00" timeLoss="6658.84" speed="4.86" speedRelative="0.24" departed="0" arrived="0" entered="595" left="593" laneChangedFrom="120" laneChangedTo="120"/>
        <edge id="-294" sampledSeconds="54.55" traveltime="3.60" overlapTraveltime="3.90" density="0.31" laneDensity="0.31" occupancy="0.14" waitingTime="0.00" timeLoss="22.88" speed="13.81" speedRelative="0.59" departed="0" arrived="14" entered="14" left="0" laneChangedFrom="0" laneChangedTo="0"/>
        <edge id="-295" sampledSeconds="228.58" traveltime="4.31" overlapTraveltime="4.63" density="1.25" laneDensity="0.62" occupancy="0.28" waitingTime="0.00" timeLoss="90.42" speed="12.07" speedRelative="0.60" departed="0" arrived="50" entered="50" left="0" laneChangedFrom="0" laneChangedTo="0"/>
        <edge id="-296" sampledSeconds="179.16" traveltime="6.69" overlapTraveltime="6.93" density="0.46" laneDensity="0.46" occupancy="0.22" waitingTime="0.00" timeLoss="53.65" speed="16.21" speedRelative="0.69" departed="0" arrived="26" entered="26" left="0" laneChangedFrom="0" laneChangedTo="0"/>
        <edge id="-297" sampledSeconds="5206.14" traveltime="9.83" overlapTraveltime="10.67" density="75.09" laneDensity="37.54" occupancy="17.30" waitingTime="3310.00" timeLoss="4560.27" speed="2.27" speedRelative="0.11" departed="0" arrived="0" entered="489" left="487" laneChangedFrom="4" laneChangedTo="4"/>
        <edge id="-298" sampledSeconds="15.64" traveltime="3.65" overlapTraveltime="3.91" density="0.06" laneDensity="0.02" occupancy="0.01" waitingTime="0.00" timeLoss="1.00" speed="18.55" speedRelative="0.92" departed="0" arrived="0" entered="4" left="4" laneChangedFrom="0" laneChangedTo="0"/>
        <edge id="-299" sampledSeconds="1508.53" traveltime="13.77" overlapTraveltime="14.00" density="1.76" laneDensity="1.76" occupancy="0.85" waitingTime="0.00" timeLoss="377.69" speed="17.32" speedRelative="0.74" departed="0" arrived="108" entered="108" left="0" laneChangedFrom="0" laneChangedTo="0"/>
        <edge id="-300" sampledSeconds="2710.27" traveltime="9.39" overlapTraveltime="10.82" density="11.03" laneDensity="2.76" occupancy="1.27" waitingTime="257.00" timeLoss="1537.58" speed="6.77" speedRelative="0.43" departed="0" arrived="0" entered="253" left="249" laneChangedFrom="188" laneChangedTo="188"/>
        <edge id="-301" sampledSeconds="110.20" traveltime="5.27" overlapTraveltime="5.56" density="0.46" laneDensity="0.23" occupancy="0.11" waitingTime="0.00" timeLoss="46.16" speed="12.95" speedRelative="0.55" departed="0" arrived="20" entered="20" left="0" laneChangedFrom="0" laneChangedTo="0"/>
        <edge id="-302" sampledSeconds="902.32" traveltime="1.25" overlapTraveltime="1.75" density="18.28" laneDensity="9.14" occupancy="3.34" waitingTime="0.00" timeLoss="210.36" speed="10.69" speedRelative="0.68" departed="0" arrived="0" entered="516" left="516" laneChangedFrom="12" laneChangedTo="12"/>
        <edge id="-303" sampledSeconds="295.42" traveltime="8.41" overlapTraveltime="8.64" density="0.53" laneDensity="0.53" occupancy="0.26" waitingTime="0.00" timeLoss="60.78" speed="18.47" speedRelative="0.79" departed="0" arrived="34" entered="35" left="0" laneChangedFrom="0" laneChangedTo="0"/>
        <edge id="-304" sampledSeconds="4504.31" traveltime="26.86" overlapTraveltime="27.20" density="3.23" laneDensity="1.61" occupancy="0.80" waitingTime="0.00" timeLoss="312.23" speed="14.45" speedRelative="0.92" departed="0" arrived="166" entered="166" left="0" laneChangedFrom="52" laneChangedTo="52"/>
        <edge id="-305" sampledSeconds="7209.62" traveltime="22.03" overlapTraveltime="22.29" density="5.06" laneDensity="2.53" occupancy="1.25" waitingTime="0.00" timeLoss="765.02" speed="17.97" speedRelative="0.89" departed="0" arrived="324" entered="324" left="0" laneChangedFrom="41" laneChangedTo="41"/>
        <edge id="-306" sampledSeconds="556.68" traveltime="2.78" overlapTraveltime="3.09" density="3.98" laneDensity="3.98" occupancy="1.77" waitingTime="0.00" timeLoss="212.23" speed="14.21" speedRelative="0.61" departed="0" arrived="184" entered="184" left="0" laneChangedFrom="0" laneChangedTo="0"/>
        <edge id="-307" sampledSeconds="5659.27" traveltime="4.80" overlapTraveltime="5.58" density="44.62" laneDensity="22.31" occupancy="9.76" waitingTime="17.00" timeLoss="2501.16" speed="7.21" speedRelative="0.46" departed="0" arrived="0" entered="1016" left="1014" laneChangedFrom="47" laneChangedTo="47"/>
        <edge id="-308" sampledSeconds="25560.36" traveltime="61.34" overlapTraveltime="62.22" density="17.95" laneDensity="5.98" occupancy="2.97" waitingTime="11757.00" timeLoss="17347.30" speed="6.44" speedRelative="0.32" departed="417" arrived="0" entered="0" left="411" laneChangedFrom="333" laneChangedTo="333"/>
        <edge id="-309" sampledSeconds="1538.51" traveltime="38.60" overlapTraveltime="39.89" density="8.74" laneDensity="4.37" occupancy="2.15" waitingTime="1079.00" timeLoss="1436.80" speed="1.35" speedRelative="0.06" departed="43" arrived="0" entered="0" left="41" laneChangedFrom="24" laneChangedTo="24"/>
        <edge id="-310" sampledSeconds="47821.53" traveltime="62.51" overlapTraveltime="63.33" density="25.79" laneDensity="6.45" occupancy="3.20" waitingTime="18311.00" timeLoss="30494.03" speed="8.21" speedRelative="0.35" departed="765" arrived="0" entered="0" left="757" laneChangedFrom="1541" laneChangedTo="1541"/>
        <edge id="-311" sampledSeconds="0.00" departed="0" arrived="0" entered="0" left="0" laneChangedFrom="0" laneChangedTo="0"/>
        <edge id="-312" sampledSeconds="4564.61" traveltime="9.01" overlapTraveltime="9.49" density="24.94" laneDensity="8.31" occupancy="4.04" waitingTime="553.00" timeLoss="3217.84" speed="5.89" speedRelative="0.29" departed="530" arrived="0" entered="0" left="530" laneChangedFrom="370" laneChangedTo="370"/>
        <edge id="-313" sampledSeconds="3234.34" traveltime="9.48" overlapTraveltime="10.04" density="34.72" laneDensity="11.57" occupancy="5.35" waitingTime="2118.00" timeLoss="2582.89" speed="3.07" speedRelative="0.20" departed="0" arrived="0" entered="322" left="322" laneChangedFrom="2" laneChangedTo="2"/>
        <edge id="-314" sampledSeconds="148.83" traveltime="1.83" overlapTraveltime="2.38" density="2.98" laneDensity="2.98" occupancy="1.10" waitingTime="0.00" timeLoss="97.86" speed="7.93" speedRelative="0.34" departed="0" arrived="66" entered="66" left="0" laneChangedFrom="0" laneChangedTo="0"/>
        <edge id="-315" sampledSeconds="802.56" traveltime="5.56" overlapTraveltime="5.90" density="2.74" laneDensity="0.91" occupancy="0.43" waitingTime="0.00" timeLoss="46.56" speed="14.61" speedRelative="0.93" departed="0" arrived="0" entered="136" left="136" laneChangedFrom="70" laneChangedTo="70"/>
        <edge id="-3151" sampledSeconds="604.05" traveltime="4.08" overlapTraveltime="4.44" density="2.90" laneDensity="0.58" occupancy="0.27" waitingTime="0.00" timeLoss="52.52" speed="14.17" speedRelative="0.90" departed="0" arrived="0" entered="136" left="136" laneChangedFrom="10" laneChangedTo="10"/>
        <edge id="-316" sampledSeconds="0.00" departed="0" arrived="0" entered="0" left="0" laneChangedFrom="0" laneChangedTo="0"/>
        <edge id="-317" sampledSeconds="2016.94" traveltime="102.39" overlapTraveltime="67.68" density="67.26" laneDensity="33.63" occupancy="16.54" waitingTime="1802.00" timeLoss="1983.51" speed="0.20" speedRelative="0.01" departed="49" arrived="0" entered="0" left="49" laneChangedFrom="27" laneChangedTo="27" teleported="1"/>
        <edge id="-318" sampledSeconds="4272.00" traveltime="41.36" overlapTraveltime="42.73" density="16.32" laneDensity="8.16" occupancy="4.02" waitingTime="2853.00" timeLoss="3888.40" speed="1.82" speedRelative="0.08" departed="107" arrived="0" entered="0" left="107" laneChangedFrom="9" laneChangedTo="9"/>
        <edge id="-319" sampledSeconds="25832.44" traveltime="165.84" overlapTraveltime="166.43" density="105.08" laneDensity="35.03" occupancy="17.45" waitingTime="22842.00" timeLoss="25294.25" speed="0.44" speedRelative="0.02" departed="167" arrived="0" entered="0" left="165" laneChangedFrom="169" laneChangedTo="169"/>
        <edge id="-320" sampledSeconds="0.00" departed="0" arrived="0" entered="0" left="0" laneChangedFrom="0" laneChangedTo="0"/>
        <edge id="-321" sampledSeconds="473.63" traveltime="2.96" overlapTraveltime="3.51" density="9.60" laneDensity="1.92" occupancy="0.83" waitingTime="188.00" timeLoss="309.74" speed="5.33" speedRelative="0.34" departed="0" arrived="0" entered="136" left="134" laneChangedFrom="17" laneChangedTo="17"/>
        <edge id="-322" sampledSeconds="3203.59" traveltime="7.76" overlapTraveltime="8.26" density="29.01" laneDensity="14.50" occupancy="6.84" waitingTime="1840.00" timeLoss="2277.54" speed="4.32" speedRelative="0.27" departed="0" arrived="0" entered="388" left="388" laneChangedFrom="3" laneChangedTo="3"/>
        <edge id="-3221" sampledSeconds="5214.83" traveltime="12.78" overlapTraveltime="13.44" density="12.47" laneDensity="6.24" occupancy="3.02" waitingTime="1504.00" timeLoss="2205.17" speed="9.01" speedRelative="0.57" departed="0" arrived="0" entered="388" left="388" laneChangedFrom="24" laneChangedTo="24"/>
        <edge id="-323" sampledSeconds="303.34" traveltime="2.00" overlapTraveltime="2.52" density="5.29" laneDensity="5.29" occupancy="2.03" waitingTime="0.00" timeLoss="195.67" speed="8.29" speedRelative="0.36" departed="0" arrived="127" entered="127" left="0" laneChangedFrom="0" laneChangedTo="0"/>
        <edge id="-324" sampledSeconds="28492.83" traveltime="253.71" overlapTraveltime="255.33" density="70.88" laneDensity="35.44" occupancy="17.68" waitingTime="25332.00" timeLoss="27885.49" speed="0.46" speedRelative="0.02" departed="121" arrived="0" entered="0" left="111" laneChangedFrom="75" laneChangedTo="75" teleported="2"/>
        <edge id="-325" sampledSeconds="720.34" traveltime="32.15" overlapTraveltime="33.83" density="1.30" laneDensity="0.65" occupancy="0.32" waitingTime="337.00" timeLoss="564.94" speed="4.71" speedRelative="0.20" departed="22" arrived="0" entered="0" left="22" laneChangedFrom="5" laneChangedTo="5"/>
        <edge id="-326" sampledSeconds="16232.61" traveltime="50.55" overlapTraveltime="51.25" density="116.39" laneDensity="29.10" occupancy="14.38" waitingTime="12235.00" timeLoss="15524.47" speed="0.85" speedRelative="0.04" departed="363" arrived="0" entered="0" left="353" laneChangedFrom="420" laneChangedTo="420"/>
        <edge id="-327" sampledSeconds="124.10" traveltime="3.00" overlapTraveltime="3.35" density="0.79" laneDensity="0.39" occupancy="0.18" waitingTime="0.00" timeLoss="5.61" speed="14.57" speedRelative="0.93" departed="0" arrived="0" entered="37" left="37" laneChangedFrom="4" laneChangedTo="4"/>
        <edge id="-3271" sampledSeconds="173.35" traveltime="3.83" overlapTraveltime="4.69" density="1.99" laneDensity="0.66" occupancy="0.29" waitingTime="44.00" timeLoss="101.86" speed="6.24" speedRelative="0.40" departed="0" arrived="0" entered="37" left="37" laneChangedFrom="7" laneChangedTo="7"/>
        <edge id="-328" sampledSeconds="2300.84" traveltime="14.73" overlapTraveltime="15.87" density="18.15" laneDensity="4.54" occupancy="2.17" waitingTime="1417.00" timeLoss="1899.33" speed="2.53" speedRelative="0.16" departed="0" arrived="0" entered="145" left="145" laneChangedFrom="17" laneChangedTo="17"/>
        <edge id="-329" sampledSeconds="1465.83" traveltime="0.84" overlapTraveltime="1.43" density="65.36" laneDensity="65.36" occupancy="18.58" waitingTime="0.00" timeLoss="971.81" speed="7.86" speedRelative="0.34" departed="0" arrived="1131" entered="1131" left="0" laneChangedFrom="0" laneChangedTo="0"/>
        <edge id="-330" sampledSeconds="0.00" departed="0" arrived="0" entered="0" left="0" laneChangedFrom="0" laneChangedTo="0"/>
        <edge id="-331" sampledSeconds="0.00" departed="0" arrived="0" entered="0" left="0" laneChangedFrom="0" laneChangedTo="0"/>
    </interval>
</meandata>
