<?xml version="1.0" encoding="UTF-8"?>

<!-- generated on 2025-02-28 14:27:58 by Eclipse SUMO sumo Version 1.21.0
<sumoConfiguration xmlns:xsi="http://www.w3.org/2001/XMLSchema-instance" xsi:noNamespaceSchemaLocation="http://sumo.dlr.de/xsd/sumoConfiguration.xsd">

    <input>
        <net-file value="chatt.net.xml"/>
        <route-files value="chatt.rou.xml"/>
        <additional-files value="updated_signal.xml,Edge.add.xml"/>
    </input>

    <output>
        <edgedata-output value="EdgeData.xml"/>
    </output>

    <time>
        <begin value="28800"/>
        <end value="32400"/>
        <step-length value="1"/>
    </time>

    <report>
        <no-warnings value="true"/>
        <no-step-log value="true"/>
    </report>

    <random_number>
        <seed value="101"/>
    </random_number>

    <gui_only>
        <start value="t"/>
    </gui_only>

</sumoConfiguration>
-->

<meandata xmlns:xsi="http://www.w3.org/2001/XMLSchema-instance" xsi:noNamespaceSchemaLocation="http://sumo.dlr.de/xsd/meandata_file.xsd">
    <interval begin="28800.00" end="32400.00" id="1">
        <edge id="-280" sampledSeconds="17142.11" traveltime="21.21" overlapTraveltime="22.04" density="103.45" laneDensity="34.48" occupancy="16.74" waitingTime="10104.00" timeLoss="14590.43" speed="2.32" speedRelative="0.15" departed="0" arrived="0" entered="779" left="778" laneChangedFrom="149" laneChangedTo="149"/>
        <edge id="-2801" sampledSeconds="23443.05" traveltime="29.85" overlapTraveltime="30.42" density="18.29" laneDensity="9.14" occupancy="4.53" waitingTime="233.00" timeLoss="5468.43" speed="11.87" speedRelative="0.75" departed="785" arrived="0" entered="0" left="779" laneChangedFrom="664" laneChangedTo="664"/>
        <edge id="-281" sampledSeconds="15402.31" traveltime="13.02" overlapTraveltime="13.91" density="90.47" laneDensity="22.62" occupancy="10.68" waitingTime="5283.00" timeLoss="11695.34" speed="3.76" speedRelative="0.24" departed="0" arrived="0" entered="1115" left="1111" laneChangedFrom="376" laneChangedTo="376" teleported="6"/>
        <edge id="-282" sampledSeconds="244.08" traveltime="3.21" overlapTraveltime="3.73" density="3.02" laneDensity="3.02" occupancy="1.19" waitingTime="0.00" timeLoss="164.28" speed="7.36" speedRelative="0.32" departed="0" arrived="68" entered="68" left="0" laneChangedFrom="0" laneChangedTo="0"/>
        <edge id="-283" sampledSeconds="1066.34" traveltime="8.36" overlapTraveltime="8.66" density="3.31" laneDensity="3.31" occupancy="1.49" waitingTime="0.00" timeLoss="565.16" speed="10.92" speedRelative="0.47" departed="0" arrived="124" entered="124" left="0" laneChangedFrom="0" laneChangedTo="0"/>
        <edge id="-284" sampledSeconds="9190.31" traveltime="9.99" overlapTraveltime="10.78" density="27.31" laneDensity="9.10" occupancy="4.28" waitingTime="502.00" timeLoss="3838.77" speed="9.14" speedRelative="0.58" departed="0" arrived="0" entered="856" left="846" laneChangedFrom="114" laneChangedTo="114" teleported="1"/>
        <edge id="-285" sampledSeconds="28673.91" traveltime="26.51" overlapTraveltime="27.29" density="121.29" laneDensity="30.32" occupancy="14.88" waitingTime="19662.00" timeLoss="24551.41" speed="2.59" speedRelative="0.14" departed="0" arrived="0" entered="1059" left="1044" laneChangedFrom="250" laneChangedTo="250"/>
        <edge id="-2851" sampledSeconds="10707.33" traveltime="9.74" overlapTraveltime="10.12" density="23.16" laneDensity="7.72" occupancy="3.66" waitingTime="33.00" timeLoss="2708.76" speed="13.19" speedRelative="0.74" departed="0" arrived="0" entered="1059" left="1059" laneChangedFrom="287" laneChangedTo="287"/>
        <edge id="-286" sampledSeconds="24962.33" traveltime="19.29" overlapTraveltime="20.18" density="76.55" laneDensity="15.31" occupancy="7.33" waitingTime="7638.00" timeLoss="17442.22" speed="4.74" speedRelative="0.30" departed="0" arrived="0" entered="1237" left="1237" laneChangedFrom="470" laneChangedTo="470"/>
        <edge id="-287" sampledSeconds="7253.33" traveltime="22.20" overlapTraveltime="22.43" density="5.19" laneDensity="2.60" occupancy="1.25" waitingTime="1.00" timeLoss="1747.93" speed="17.52" speedRelative="0.75" departed="0" arrived="323" entered="325" left="0" laneChangedFrom="22" laneChangedTo="22"/>
        <edge id="-288" sampledSeconds="24635.71" traveltime="28.57" overlapTraveltime="29.27" density="35.26" laneDensity="11.75" occupancy="5.73" waitingTime="7855.00" timeLoss="15201.37" speed="6.80" speedRelative="0.38" departed="0" arrived="0" entered="845" left="829" laneChangedFrom="395" laneChangedTo="395"/>
        <edge id="-289" sampledSeconds="7528.03" traveltime="17.68" overlapTraveltime="17.92" density="6.85" laneDensity="3.43" occupancy="1.66" waitingTime="0.00" timeLoss="1893.23" speed="17.32" speedRelative="0.74" departed="0" arrived="421" entered="421" left="0" laneChangedFrom="17" laneChangedTo="17"/>
        <edge id="-290" sampledSeconds="12120.15" traveltime="11.83" overlapTraveltime="12.84" density="82.94" laneDensity="27.65" occupancy="12.72" waitingTime="3263.00" timeLoss="9981.68" speed="3.55" speedRelative="0.18" departed="0" arrived="0" entered="987" left="984" laneChangedFrom="454" laneChangedTo="454" teleported="44"/>
        <edge id="-291" sampledSeconds="0.00" departed="0" arrived="0" entered="0" left="0" laneChangedFrom="0" laneChangedTo="0"/>
        <edge id="-292" sampledSeconds="33256.72" traveltime="47.74" overlapTraveltime="48.91" density="24.79" laneDensity="8.26" occupancy="4.09" waitingTime="11355.00" timeLoss="22181.71" speed="7.72" speedRelative="0.33" departed="693" arrived="0" entered="0" left="688" laneChangedFrom="580" laneChangedTo="580"/>
        <edge id="-293" sampledSeconds="6328.87" traveltime="9.66" overlapTraveltime="10.54" density="20.31" laneDensity="10.15" occupancy="4.67" waitingTime="237.00" timeLoss="3595.28" speed="8.69" speedRelative="0.43" departed="0" arrived="0" entered="603" left="601" laneChangedFrom="174" laneChangedTo="174" teleported="1"/>
        <edge id="-294" sampledSeconds="860.37" traveltime="22.41" overlapTraveltime="22.64" density="0.59" laneDensity="0.59" occupancy="0.28" waitingTime="1.00" timeLoss="196.44" speed="18.13" speedRelative="0.78" departed="0" arrived="38" entered="39" left="0" laneChangedFrom="0" laneChangedTo="0"/>
        <edge id="-295" sampledSeconds="1654.95" traveltime="1.99" overlapTraveltime="2.35" density="20.42" laneDensity="10.21" occupancy="4.11" waitingTime="0.00" timeLoss="686.58" speed="11.69" speedRelative="0.58" departed="0" arrived="721" entered="727" left="5" laneChangedFrom="1" laneChangedTo="1" teleported="5"/>
        <edge id="-296" sampledSeconds="814.52" traveltime="9.14" overlapTraveltime="9.39" density="1.85" laneDensity="1.85" occupancy="0.87" waitingTime="0.00" timeLoss="342.31" speed="13.60" speedRelative="0.58" departed="0" arrived="87" entered="87" left="0" laneChangedFrom="0" laneChangedTo="0"/>
        <edge id="-297" sampledSeconds="12308.09" traveltime="22.66" overlapTraveltime="23.44" density="84.23" laneDensity="42.12" occupancy="20.29" waitingTime="7578.00" timeLoss="11096.29" speed="1.94" speedRelative="0.10" departed="0" arrived="0" entered="528" left="520" laneChangedFrom="39" laneChangedTo="39"/>
        <edge id="-298" sampledSeconds="9828.69" traveltime="12.39" overlapTraveltime="12.96" density="31.54" laneDensity="10.51" occupancy="5.00" waitingTime="2213.00" timeLoss="6369.18" speed="7.07" speedRelative="0.35" departed="0" arrived="0" entered="763" left="751" laneChangedFrom="140" laneChangedTo="140"/>
        <edge id="-299" sampledSeconds="6026.23" traveltime="15.34" overlapTraveltime="15.58" density="6.77" laneDensity="6.77" occupancy="3.22" waitingTime="0.00" timeLoss="1763.72" speed="16.20" speedRelative="0.69" departed="0" arrived="390" entered="390" left="0" laneChangedFrom="0" laneChangedTo="0"/>
        <edge id="-300" sampledSeconds="27346.55" traveltime="25.15" overlapTraveltime="25.96" density="83.86" laneDensity="20.97" occupancy="10.18" waitingTime="13348.00" timeLoss="20944.21" speed="3.68" speedRelative="0.23" departed="0" arrived="0" entered="1056" left="1044" laneChangedFrom="382" laneChangedTo="382"/>
        <edge id="-301" sampledSeconds="792.49" traveltime="7.70" overlapTraveltime="8.00" density="2.51" laneDensity="1.25" occupancy="0.58" waitingTime="0.00" timeLoss="392.41" speed="11.59" speedRelative="0.50" departed="0" arrived="100" entered="100" left="0" laneChangedFrom="3" laneChangedTo="3"/>
        <edge id="-302" sampledSeconds="9534.49" traveltime="7.11" overlapTraveltime="7.96" density="74.23" laneDensity="37.11" occupancy="16.55" waitingTime="223.00" timeLoss="6431.82" speed="5.11" speedRelative="0.32" departed="0" arrived="0" entered="1199" left="1196" laneChangedFrom="37" laneChangedTo="37"/>
        <edge id="-303" sampledSeconds="878.87" traveltime="12.73" overlapTraveltime="12.98" density="1.40" laneDensity="1.40" occupancy="0.65" waitingTime="0.00" timeLoss="352.45" speed="13.85" speedRelative="0.59" departed="0" arrived="68" entered="68" left="0" laneChangedFrom="0" laneChangedTo="0"/>
        <edge id="-304" sampledSeconds="14672.00" traveltime="29.67" overlapTraveltime="30.01" density="10.13" laneDensity="5.06" occupancy="2.48" waitingTime="0.00" timeLoss="2008.60" speed="13.58" speedRelative="0.86" departed="0" arrived="490" entered="490" left="0" laneChangedFrom="115" laneChangedTo="115"/>
        <edge id="-305" sampledSeconds="13937.38" traveltime="25.75" overlapTraveltime="26.02" density="9.46" laneDensity="4.73" occupancy="2.28" waitingTime="0.00" timeLoss="2913.71" speed="15.92" speedRelative="0.79" departed="0" arrived="535" entered="537" left="0" laneChangedFrom="66" laneChangedTo="66"/>
        <edge id="-306" sampledSeconds="1857.58" traveltime="5.65" overlapTraveltime="6.02" density="9.57" laneDensity="9.57" occupancy="4.21" waitingTime="0.00" timeLoss="1075.32" speed="9.79" speedRelative="0.42" departed="0" arrived="313" entered="320" left="7" laneChangedFrom="0" laneChangedTo="0" teleported="7"/>
        <edge id="-307" sampledSeconds="10440.89" traveltime="9.37" overlapTraveltime="10.22" density="47.58" laneDensity="15.86" occupancy="7.23" waitingTime="135.00" timeLoss="6107.50" speed="6.45" speedRelative="0.41" departed="0" arrived="0" entered="1026" left="1021" laneChangedFrom="255" laneChangedTo="255" teleported="1"/>
        <edge id="-308" sampledSeconds="27212.29" traveltime="65.38" overlapTraveltime="66.31" density="18.47" laneDensity="6.16" occupancy="3.06" waitingTime="13229.00" timeLoss="18725.69" speed="6.25" speedRelative="0.31" departed="417" arrived="0" entered="0" left="409" laneChangedFrom="467" laneChangedTo="467"/>
        <edge id="-309" sampledSeconds="2304.90" traveltime="52.82" overlapTraveltime="54.32" density="1.58" laneDensity="0.79" occupancy="0.39" waitingTime="1007.00" timeLoss="1556.61" speed="7.56" speedRelative="0.32" departed="43" arrived="0" entered="0" left="42" laneChangedFrom="25" laneChangedTo="25"/>
        <edge id="-310" sampledSeconds="98904.96" traveltime="130.48" overlapTraveltime="131.41" density="51.79" laneDensity="12.95" occupancy="6.46" waitingTime="32679.00" timeLoss="81456.47" speed="4.07" speedRelative="0.17" departed="765" arrived="0" entered="0" left="748" laneChangedFrom="1924" laneChangedTo="1924"/>
        <edge id="-311" sampledSeconds="0.00" departed="0" arrived="0" entered="0" left="0" laneChangedFrom="0" laneChangedTo="0"/>
        <edge id="-312" sampledSeconds="3843.29" traveltime="8.39" overlapTraveltime="8.90" density="47.43" laneDensity="15.81" occupancy="7.52" waitingTime="899.00" timeLoss="3251.98" speed="3.09" speedRelative="0.15" departed="531" arrived="0" entered="0" left="531" laneChangedFrom="102" laneChangedTo="102"/>
        <edge id="-313" sampledSeconds="9043.14" traveltime="8.88" overlapTraveltime="9.44" density="53.12" laneDensity="17.71" occupancy="8.17" waitingTime="2659.00" timeLoss="5862.46" speed="5.54" speedRelative="0.35" departed="0" arrived="0" entered="959" left="957" laneChangedFrom="93" laneChangedTo="93"/>
        <edge id="-314" sampledSeconds="1085.02" traveltime="2.48" overlapTraveltime="2.93" density="13.58" laneDensity="13.58" occupancy="5.44" waitingTime="1.00" timeLoss="650.15" speed="9.30" speedRelative="0.40" departed="0" arrived="386" entered="386" left="0" laneChangedFrom="0" laneChangedTo="0"/>
        <edge id="-315" sampledSeconds="18569.86" traveltime="17.22" overlapTraveltime="18.15" density="30.93" laneDensity="6.19" occupancy="2.95" waitingTime="1679.00" timeLoss="7266.38" speed="9.46" speedRelative="0.60" departed="0" arrived="0" entered="1025" left="1020" laneChangedFrom="585" laneChangedTo="586"/>
        <edge id="-316" sampledSeconds="440.44" traveltime="5.18" overlapTraveltime="5.67" density="5.51" laneDensity="5.51" occupancy="2.58" waitingTime="0.00" timeLoss="331.27" speed="4.80" speedRelative="0.21" departed="96" arrived="0" entered="0" left="96" laneChangedFrom="0" laneChangedTo="0"/>
        <edge id="-317" sampledSeconds="4601.04" traveltime="120.25" overlapTraveltime="123.45" density="56.93" laneDensity="28.46" occupancy="14.17" waitingTime="4182.00" timeLoss="4553.73" speed="0.22" speedRelative="0.01" departed="49" arrived="0" entered="0" left="49" laneChangedFrom="31" laneChangedTo="31" teleported="1"/>
        <edge id="-318" sampledSeconds="4163.19" traveltime="39.75" overlapTraveltime="41.61" density="12.92" laneDensity="6.46" occupancy="3.18" waitingTime="2561.00" timeLoss="3744.51" speed="2.27" speedRelative="0.10" departed="107" arrived="0" entered="0" left="107" laneChangedFrom="8" laneChangedTo="8"/>
        <edge id="-319" sampledSeconds="8161.27" traveltime="50.80" overlapTraveltime="51.99" density="25.84" laneDensity="8.61" occupancy="4.27" waitingTime="5598.00" timeLoss="7492.88" speed="1.78" speedRelative="0.08" departed="167" arrived="0" entered="0" left="166" laneChangedFrom="249" laneChangedTo="249"/>
        <edge id="-320" sampledSeconds="471.28" traveltime="5.50" overlapTraveltime="6.02" density="5.37" laneDensity="5.37" occupancy="2.53" waitingTime="2.00" timeLoss="355.38" speed="4.88" speedRelative="0.21" departed="96" arrived="0" entered="0" left="96" laneChangedFrom="0" laneChangedTo="0"/>
        <edge id="-321" sampledSeconds="13594.22" traveltime="12.95" overlapTraveltime="13.63" density="105.83" laneDensity="21.17" occupancy="9.99" waitingTime="7044.00" timeLoss="10997.45" speed="2.98" speedRelative="0.19" departed="0" arrived="0" entered="998" left="998" laneChangedFrom="179" laneChangedTo="179"/>
        <edge id="-322" sampledSeconds="8419.94" traveltime="6.42" overlapTraveltime="7.23" density="53.34" laneDensity="26.67" occupancy="12.21" waitingTime="214.00" timeLoss="4839.58" speed="6.76" speedRelative="0.43" departed="0" arrived="0" entered="1167" left="1163" laneChangedFrom="38" laneChangedTo="38"/>
        <edge id="-3221" sampledSeconds="12955.37" traveltime="10.60" overlapTraveltime="11.07" density="29.27" laneDensity="14.64" occupancy="6.86" waitingTime="0.00" timeLoss="3398.54" speed="11.55" speedRelative="0.73" departed="0" arrived="0" entered="1174" left="1167" laneChangedFrom="162" laneChangedTo="162"/>
        <edge id="-323" sampledSeconds="563.56" traveltime="3.65" overlapTraveltime="4.18" density="6.42" laneDensity="6.42" occupancy="2.51" waitingTime="0.00" timeLoss="392.83" speed="7.03" speedRelative="0.30" departed="0" arrived="141" entered="141" left="0" laneChangedFrom="0" laneChangedTo="0"/>
        <edge id="-324" sampledSeconds="5561.99" traveltime="46.40" overlapTraveltime="47.63" density="12.60" laneDensity="6.30" occupancy="3.12" waitingTime="3508.00" timeLoss="4911.14" speed="2.68" speedRelative="0.11" departed="122" arrived="0" entered="0" left="120" laneChangedFrom="80" laneChangedTo="80"/>
        <edge id="-325" sampledSeconds="782.02" traveltime="35.12" overlapTraveltime="36.92" density="1.24" laneDensity="0.62" occupancy="0.31" waitingTime="358.00" timeLoss="607.26" speed="4.87" speedRelative="0.21" departed="22" arrived="0" entered="0" left="22" laneChangedFrom="3" laneChangedTo="3"/>
        <edge id="-326" sampledSeconds="13548.82" traveltime="40.00" overlapTraveltime="41.42" density="69.79" laneDensity="17.45" occupancy="8.62" waitingTime="9117.00" timeLoss="12694.29" speed="1.42" speedRelative="0.06" departed="363" arrived="0" entered="0" left="359" laneChangedFrom="456" laneChangedTo="456"/>
        <edge id="-327" sampledSeconds="11719.39" traveltime="10.53" overlapTraveltime="11.14" density="34.82" laneDensity="11.61" occupancy="5.41" waitingTime="1084.00" timeLoss="5047.28" speed="8.84" speedRelative="0.56" departed="0" arrived="0" entered="1056" left="1050" laneChangedFrom="658" laneChangedTo="658"/>
        <edge id="-328" sampledSeconds="30570.14" traveltime="35.46" overlapTraveltime="36.66" density="139.32" laneDensity="34.83" occupancy="16.98" waitingTime="18196.00" timeLoss="27104.83" speed="1.80" speedRelative="0.11" departed="0" arrived="0" entered="841" left="827" laneChangedFrom="109" laneChangedTo="109"/>
        <edge id="-329" sampledSeconds="144.69" traveltime="1.90" overlapTraveltime="2.32" density="2.43" laneDensity="2.43" occupancy="0.91" waitingTime="0.00" timeLoss="86.84" speed="9.27" speedRelative="0.40" departed="0" arrived="66" entered="66" left="0" laneChangedFrom="0" laneChangedTo="0"/>
        <edge id="-330" sampledSeconds="368.14" traveltime="4.56" overlapTraveltime="5.11" density="6.18" laneDensity="6.18" occupancy="2.83" waitingTime="0.00" timeLoss="285.88" speed="4.21" speedRelative="0.18" departed="96" arrived="0" entered="0" left="96" laneChangedFrom="0" laneChangedTo="0"/>
        <edge id="-331" sampledSeconds="1657.37" traveltime="17.38" overlapTraveltime="17.64" density="1.86" laneDensity="1.86" occupancy="0.92" waitingTime="0.00" timeLoss="629.05" speed="14.31" speedRelative="0.61" departed="96" arrived="0" entered="0" left="96" laneChangedFrom="0" laneChangedTo="0"/>
    </interval>
</meandata>
