<?xml version="1.0" encoding="UTF-8"?>

<!-- generated on 2025-05-02 14:04:27 by Eclipse SUMO GUI Version 1.21.0
<sumoConfiguration xmlns:xsi="http://www.w3.org/2001/XMLSchema-instance" xsi:noNamespaceSchemaLocation="http://sumo.dlr.de/xsd/sumoConfiguration.xsd">

    <input>
        <net-file value="C:\Users\xh8\ornl_work\github_workspace\Real-Twin-Dev\datasets\input_dir_dummy\chatt.net.xml"/>
        <route-files value="C:\Users\xh8\ornl_work\github_workspace\Real-Twin-Dev\datasets\input_dir_dummy\chatt.rou.xml"/>
        <additional-files value="C:\Users\xh8\ornl_work\github_workspace\Real-Twin-Dev\datasets\input_dir_dummy\updated_signal.xml,C:\Users\xh8\ornl_work\github_workspace\Real-Twin-Dev\datasets\input_dir_dummy\Edge.add.xml"/>
    </input>

    <output>
        <edgedata-output value="C:\Users\xh8\ornl_work\github_workspace\Real-Twin-Dev\datasets\input_dir_dummy\EdgeData.xml"/>
    </output>

    <time>
        <begin value="28800"/>
        <end value="32400"/>
        <step-length value="1"/>
    </time>

    <report>
        <no-warnings value="true"/>
        <no-step-log value="true"/>
    </report>

    <random_number>
        <seed value="101"/>
    </random_number>

    <gui_only>
        <start value="t"/>
    </gui_only>

</sumoConfiguration>
-->

<meandata xmlns:xsi="http://www.w3.org/2001/XMLSchema-instance" xsi:noNamespaceSchemaLocation="http://sumo.dlr.de/xsd/meandata_file.xsd">
    <interval begin="28800.00" end="32061.00" id="1">
        <edge id="-280" sampledSeconds="10980.75" traveltime="14.83" overlapTraveltime="15.62" density="73.15" laneDensity="24.38" occupancy="11.75" waitingTime="5578.00" timeLoss="8701.52" speed="3.27" speedRelative="0.21" departed="0" arrived="0" entered="705" left="698" laneChangedFrom="108" laneChangedTo="108"/>
        <edge id="-2801" sampledSeconds="19524.99" traveltime="27.52" overlapTraveltime="27.98" density="16.82" laneDensity="8.41" occupancy="4.17" waitingTime="16.00" timeLoss="3422.60" speed="12.90" speedRelative="0.82" departed="711" arrived="0" entered="0" left="705" laneChangedFrom="547" laneChangedTo="547"/>
        <edge id="-281" sampledSeconds="19463.13" traveltime="20.39" overlapTraveltime="21.31" density="126.21" laneDensity="31.55" occupancy="15.06" waitingTime="8471.00" timeLoss="16459.30" speed="2.45" speedRelative="0.16" departed="0" arrived="0" entered="919" left="914" laneChangedFrom="278" laneChangedTo="278" teleported="2"/>
        <edge id="-282" sampledSeconds="137.34" traveltime="3.21" overlapTraveltime="3.70" density="1.88" laneDensity="1.88" occupancy="0.73" waitingTime="0.00" timeLoss="93.38" speed="7.42" speedRelative="0.32" departed="0" arrived="38" entered="38" left="0" laneChangedFrom="0" laneChangedTo="0"/>
        <edge id="-283" sampledSeconds="602.79" traveltime="7.61" overlapTraveltime="7.90" density="2.06" laneDensity="2.06" occupancy="0.94" waitingTime="0.00" timeLoss="296.47" speed="11.97" speedRelative="0.51" departed="0" arrived="77" entered="77" left="0" laneChangedFrom="0" laneChangedTo="0"/>
        <edge id="-284" sampledSeconds="4979.83" traveltime="15.91" overlapTraveltime="16.88" density="16.33" laneDensity="5.44" occupancy="2.60" waitingTime="1567.00" timeLoss="3125.53" speed="5.83" speedRelative="0.37" departed="0" arrived="0" entered="295" left="295" laneChangedFrom="40" laneChangedTo="40"/>
        <edge id="-285" sampledSeconds="11606.38" traveltime="22.30" overlapTraveltime="23.10" density="54.20" laneDensity="13.55" occupancy="6.64" waitingTime="7697.00" timeLoss="9641.65" speed="3.06" speedRelative="0.17" departed="0" arrived="0" entered="505" left="502" laneChangedFrom="136" laneChangedTo="136"/>
        <edge id="-2851" sampledSeconds="4917.75" traveltime="9.43" overlapTraveltime="9.74" density="11.74" laneDensity="3.91" occupancy="1.84" waitingTime="2.00" timeLoss="1117.21" speed="13.70" speedRelative="0.77" departed="0" arrived="0" entered="507" left="505" laneChangedFrom="169" laneChangedTo="169"/>
        <edge id="-286" sampledSeconds="12126.03" traveltime="11.68" overlapTraveltime="12.28" density="41.05" laneDensity="8.21" occupancy="3.88" waitingTime="2014.00" timeLoss="6068.40" speed="7.78" speedRelative="0.49" departed="0" arrived="0" entered="989" left="986" laneChangedFrom="326" laneChangedTo="326"/>
        <edge id="-287" sampledSeconds="3637.24" traveltime="21.32" overlapTraveltime="21.55" density="2.88" laneDensity="1.44" occupancy="0.69" waitingTime="2.00" timeLoss="753.98" speed="18.23" speedRelative="0.78" departed="0" arrived="169" entered="169" left="0" laneChangedFrom="17" laneChangedTo="17"/>
        <edge id="-288" sampledSeconds="13500.49" traveltime="22.14" overlapTraveltime="22.78" density="21.33" laneDensity="7.11" occupancy="3.44" waitingTime="2786.00" timeLoss="6788.42" speed="8.74" speedRelative="0.49" departed="0" arrived="0" entered="594" left="592" laneChangedFrom="353" laneChangedTo="353"/>
        <edge id="-289" sampledSeconds="3599.60" traveltime="17.45" overlapTraveltime="17.68" density="3.62" laneDensity="1.81" occupancy="0.87" waitingTime="0.00" timeLoss="854.96" speed="17.55" speedRelative="0.75" departed="0" arrived="204" entered="204" left="0" laneChangedFrom="13" laneChangedTo="13"/>
        <edge id="-290" sampledSeconds="5107.12" traveltime="8.01" overlapTraveltime="8.82" density="38.58" laneDensity="12.86" occupancy="5.72" waitingTime="1120.00" timeLoss="3794.31" speed="5.17" speedRelative="0.26" departed="0" arrived="0" entered="610" left="609" laneChangedFrom="184" laneChangedTo="184" teleported="32"/>
        <edge id="-291" sampledSeconds="0.00" departed="0" arrived="0" entered="0" left="0" laneChangedFrom="0" laneChangedTo="0"/>
        <edge id="-292" sampledSeconds="28311.87" traveltime="45.52" overlapTraveltime="46.61" density="23.29" laneDensity="7.76" occupancy="3.85" waitingTime="10578.00" timeLoss="18336.69" speed="8.10" speedRelative="0.35" departed="620" arrived="0" entered="0" left="605" laneChangedFrom="501" laneChangedTo="501"/>
        <edge id="-293" sampledSeconds="4336.91" traveltime="7.60" overlapTraveltime="8.11" density="15.36" laneDensity="7.68" occupancy="3.53" waitingTime="17.00" timeLoss="1909.48" speed="11.30" speedRelative="0.56" departed="0" arrived="0" entered="539" left="539" laneChangedFrom="84" laneChangedTo="84" teleported="4"/>
        <edge id="-294" sampledSeconds="614.90" traveltime="22.49" overlapTraveltime="22.72" density="0.47" laneDensity="0.47" occupancy="0.22" waitingTime="0.00" timeLoss="125.87" speed="18.06" speedRelative="0.77" departed="0" arrived="27" entered="28" left="0" laneChangedFrom="0" laneChangedTo="0"/>
        <edge id="-295" sampledSeconds="1046.49" traveltime="1.73" overlapTraveltime="2.05" density="14.26" laneDensity="7.13" occupancy="2.85" waitingTime="0.00" timeLoss="350.79" speed="13.43" speedRelative="0.66" departed="0" arrived="522" entered="525" left="2" laneChangedFrom="2" laneChangedTo="2" teleported="2"/>
        <edge id="-296" sampledSeconds="564.65" traveltime="8.70" overlapTraveltime="8.95" density="1.41" laneDensity="1.41" occupancy="0.66" waitingTime="0.00" timeLoss="218.66" speed="14.26" speedRelative="0.61" departed="0" arrived="63" entered="65" left="0" laneChangedFrom="0" laneChangedTo="0"/>
        <edge id="-297" sampledSeconds="4779.37" traveltime="15.19" overlapTraveltime="15.90" density="36.11" laneDensity="18.05" occupancy="8.64" waitingTime="2736.00" timeLoss="4077.74" speed="2.87" speedRelative="0.14" departed="0" arrived="0" entered="301" left="301" laneChangedFrom="58" laneChangedTo="58"/>
        <edge id="-298" sampledSeconds="4783.34" traveltime="8.31" overlapTraveltime="8.79" density="16.95" laneDensity="5.65" occupancy="2.65" waitingTime="560.00" timeLoss="2314.72" speed="10.42" speedRelative="0.51" departed="0" arrived="0" entered="548" left="539" laneChangedFrom="74" laneChangedTo="74"/>
        <edge id="-299" sampledSeconds="4951.45" traveltime="12.56" overlapTraveltime="12.79" density="6.14" laneDensity="6.14" occupancy="2.97" waitingTime="0.00" timeLoss="704.99" speed="19.74" speedRelative="0.85" departed="0" arrived="390" entered="390" left="0" laneChangedFrom="0" laneChangedTo="0"/>
        <edge id="-300" sampledSeconds="9299.29" traveltime="22.43" overlapTraveltime="23.32" density="31.48" laneDensity="7.87" occupancy="3.80" waitingTime="4924.00" timeLoss="6876.39" speed="4.10" speedRelative="0.26" departed="0" arrived="0" entered="399" left="397" laneChangedFrom="231" laneChangedTo="231"/>
        <edge id="-301" sampledSeconds="362.07" traveltime="7.32" overlapTraveltime="7.60" density="1.27" laneDensity="0.63" occupancy="0.29" waitingTime="0.00" timeLoss="172.02" speed="12.20" speedRelative="0.52" departed="0" arrived="48" entered="48" left="0" laneChangedFrom="0" laneChangedTo="0"/>
        <edge id="-302" sampledSeconds="4949.30" traveltime="4.60" overlapTraveltime="5.21" density="42.54" laneDensity="21.27" occupancy="9.38" waitingTime="58.00" timeLoss="2568.09" speed="7.81" speedRelative="0.50" departed="0" arrived="0" entered="950" left="950" laneChangedFrom="28" laneChangedTo="28"/>
        <edge id="-303" sampledSeconds="837.74" traveltime="11.77" overlapTraveltime="12.01" density="1.47" laneDensity="1.47" occupancy="0.69" waitingTime="0.00" timeLoss="289.36" speed="14.98" speedRelative="0.64" departed="0" arrived="70" entered="70" left="0" laneChangedFrom="0" laneChangedTo="0"/>
        <edge id="-304" sampledSeconds="5378.55" traveltime="28.60" overlapTraveltime="28.93" density="4.10" laneDensity="2.05" occupancy="1.00" waitingTime="0.00" timeLoss="579.93" speed="14.08" speedRelative="0.89" departed="0" arrived="185" entered="188" left="0" laneChangedFrom="71" laneChangedTo="71"/>
        <edge id="-305" sampledSeconds="5702.30" traveltime="24.77" overlapTraveltime="25.03" density="4.27" laneDensity="2.14" occupancy="1.03" waitingTime="0.00" timeLoss="983.44" speed="16.55" speedRelative="0.82" departed="0" arrived="226" entered="230" left="0" laneChangedFrom="31" laneChangedTo="31"/>
        <edge id="-306" sampledSeconds="1291.87" traveltime="5.26" overlapTraveltime="5.60" density="7.35" laneDensity="7.35" occupancy="3.23" waitingTime="0.00" timeLoss="704.47" speed="10.53" speedRelative="0.45" departed="0" arrived="234" entered="237" left="2" laneChangedFrom="0" laneChangedTo="0" teleported="2"/>
        <edge id="-307" sampledSeconds="10225.40" traveltime="10.00" overlapTraveltime="10.89" density="51.45" laneDensity="17.15" occupancy="7.85" waitingTime="653.00" timeLoss="6282.04" speed="6.06" speedRelative="0.38" departed="0" arrived="0" entered="942" left="942" laneChangedFrom="311" laneChangedTo="311" teleported="2"/>
        <edge id="-308" sampledSeconds="24684.44" traveltime="65.17" overlapTraveltime="66.12" density="18.49" laneDensity="6.16" occupancy="3.06" waitingTime="12497.00" timeLoss="16957.79" speed="6.27" speedRelative="0.31" departed="380" arrived="0" entered="0" left="374" laneChangedFrom="461" laneChangedTo="461"/>
        <edge id="-309" sampledSeconds="1898.41" traveltime="51.59" overlapTraveltime="53.09" density="1.44" laneDensity="0.72" occupancy="0.36" waitingTime="866.00" timeLoss="1271.16" speed="7.73" speedRelative="0.33" departed="37" arrived="0" entered="0" left="36" laneChangedFrom="21" laneChangedTo="21"/>
        <edge id="-310" sampledSeconds="43095.88" traveltime="62.48" overlapTraveltime="63.30" density="24.91" laneDensity="6.23" occupancy="3.10" waitingTime="14236.00" timeLoss="27231.90" speed="8.46" speedRelative="0.36" departed="692" arrived="0" entered="0" left="676" laneChangedFrom="1709" laneChangedTo="1709"/>
        <edge id="-311" sampledSeconds="0.00" departed="0" arrived="0" entered="0" left="0" laneChangedFrom="0" laneChangedTo="0"/>
        <edge id="-312" sampledSeconds="3225.60" traveltime="7.98" overlapTraveltime="8.44" density="43.94" laneDensity="14.65" occupancy="6.98" waitingTime="823.00" timeLoss="2700.11" speed="3.26" speedRelative="0.16" departed="471" arrived="0" entered="0" left="468" laneChangedFrom="49" laneChangedTo="49"/>
        <edge id="-313" sampledSeconds="3217.62" traveltime="9.28" overlapTraveltime="9.87" density="20.86" laneDensity="6.95" occupancy="3.25" waitingTime="1310.00" timeLoss="2127.12" speed="5.30" speedRelative="0.34" departed="0" arrived="0" entered="326" left="326" laneChangedFrom="46" laneChangedTo="46"/>
        <edge id="-314" sampledSeconds="1964.48" traveltime="2.50" overlapTraveltime="2.93" density="27.15" laneDensity="27.15" occupancy="10.84" waitingTime="3.00" timeLoss="1178.16" speed="9.29" speedRelative="0.40" departed="0" arrived="700" entered="701" left="0" laneChangedFrom="0" laneChangedTo="0"/>
        <edge id="-315" sampledSeconds="13210.14" traveltime="24.93" overlapTraveltime="25.79" density="24.29" laneDensity="4.86" occupancy="2.36" waitingTime="4426.00" timeLoss="7582.04" speed="6.66" speedRelative="0.42" departed="0" arrived="0" entered="514" left="510" laneChangedFrom="552" laneChangedTo="552"/>
        <edge id="-316" sampledSeconds="387.69" traveltime="4.82" overlapTraveltime="5.34" density="5.36" laneDensity="5.36" occupancy="2.52" waitingTime="0.00" timeLoss="286.53" speed="5.09" speedRelative="0.22" departed="91" arrived="0" entered="0" left="91" laneChangedFrom="0" laneChangedTo="0"/>
        <edge id="-317" sampledSeconds="3905.66" traveltime="110.96" overlapTraveltime="113.74" density="53.35" laneDensity="26.67" occupancy="13.27" waitingTime="3530.00" timeLoss="3861.48" speed="0.24" speedRelative="0.01" departed="45" arrived="0" entered="0" left="45" laneChangedFrom="28" laneChangedTo="28" teleported="1"/>
        <edge id="-318" sampledSeconds="3406.55" traveltime="35.97" overlapTraveltime="37.85" density="11.67" laneDensity="5.83" occupancy="2.88" waitingTime="2093.00" timeLoss="3030.89" speed="2.50" speedRelative="0.11" departed="97" arrived="0" entered="0" left="94" laneChangedFrom="8" laneChangedTo="8"/>
        <edge id="-319" sampledSeconds="7531.89" traveltime="50.81" overlapTraveltime="51.92" density="26.32" laneDensity="8.77" occupancy="4.35" waitingTime="5379.00" timeLoss="6937.05" speed="1.79" speedRelative="0.08" departed="154" arrived="0" entered="0" left="154" laneChangedFrom="222" laneChangedTo="222"/>
        <edge id="-320" sampledSeconds="411.91" traveltime="5.04" overlapTraveltime="5.48" density="5.18" laneDensity="5.18" occupancy="2.44" waitingTime="0.00" timeLoss="298.18" speed="5.37" speedRelative="0.23" departed="91" arrived="0" entered="0" left="91" laneChangedFrom="0" laneChangedTo="0"/>
        <edge id="-321" sampledSeconds="3928.53" traveltime="11.94" overlapTraveltime="12.63" density="33.76" laneDensity="6.75" occupancy="3.20" waitingTime="2288.00" timeLoss="3115.33" speed="3.22" speedRelative="0.20" departed="0" arrived="0" entered="312" left="308" laneChangedFrom="72" laneChangedTo="72"/>
        <edge id="-322" sampledSeconds="2450.85" traveltime="4.01" overlapTraveltime="4.57" density="17.14" laneDensity="8.57" occupancy="3.87" waitingTime="26.00" timeLoss="833.13" speed="10.68" speedRelative="0.68" departed="0" arrived="0" entered="536" left="536" laneChangedFrom="5" laneChangedTo="5"/>
        <edge id="-3221" sampledSeconds="5389.08" traveltime="9.70" overlapTraveltime="10.04" density="13.44" laneDensity="6.72" occupancy="3.17" waitingTime="0.00" timeLoss="983.46" speed="12.74" speedRelative="0.81" departed="0" arrived="0" entered="537" left="536" laneChangedFrom="135" laneChangedTo="135"/>
        <edge id="-323" sampledSeconds="1850.66" traveltime="2.34" overlapTraveltime="2.73" density="23.26" laneDensity="23.26" occupancy="9.54" waitingTime="0.00" timeLoss="986.69" speed="10.77" speedRelative="0.46" departed="0" arrived="702" entered="703" left="0" laneChangedFrom="0" laneChangedTo="0"/>
        <edge id="-324" sampledSeconds="4891.69" traveltime="46.55" overlapTraveltime="47.71" density="12.23" laneDensity="6.12" occupancy="3.03" waitingTime="3195.00" timeLoss="4320.31" speed="2.67" speedRelative="0.11" departed="107" arrived="0" entered="0" left="107" laneChangedFrom="68" laneChangedTo="68"/>
        <edge id="-325" sampledSeconds="502.93" traveltime="26.16" overlapTraveltime="27.62" density="0.88" laneDensity="0.44" occupancy="0.22" waitingTime="169.00" timeLoss="361.67" speed="6.51" speedRelative="0.28" departed="19" arrived="0" entered="0" left="19" laneChangedFrom="4" laneChangedTo="4"/>
        <edge id="-326" sampledSeconds="11644.52" traveltime="38.62" overlapTraveltime="40.06" density="66.21" laneDensity="16.55" occupancy="8.18" waitingTime="8092.00" timeLoss="10877.92" speed="1.47" speedRelative="0.06" departed="323" arrived="0" entered="0" left="322" laneChangedFrom="380" laneChangedTo="380"/>
        <edge id="-327" sampledSeconds="25543.35" traveltime="28.30" overlapTraveltime="29.29" density="83.78" laneDensity="27.93" occupancy="13.50" waitingTime="9694.00" timeLoss="20039.98" speed="3.36" speedRelative="0.21" departed="0" arrived="0" entered="879" left="863" laneChangedFrom="444" laneChangedTo="444"/>
        <edge id="-328" sampledSeconds="4900.27" traveltime="22.94" overlapTraveltime="24.13" density="24.65" laneDensity="6.16" occupancy="2.97" waitingTime="2985.00" timeLoss="4050.52" speed="2.73" speedRelative="0.17" departed="0" arrived="0" entered="204" left="203" laneChangedFrom="58" laneChangedTo="58"/>
        <edge id="-329" sampledSeconds="579.70" traveltime="2.03" overlapTraveltime="2.49" density="10.74" laneDensity="10.74" occupancy="3.97" waitingTime="0.00" timeLoss="362.38" speed="8.67" speedRelative="0.37" departed="0" arrived="244" entered="245" left="0" laneChangedFrom="0" laneChangedTo="0"/>
        <edge id="-330" sampledSeconds="323.81" traveltime="4.28" overlapTraveltime="4.86" density="6.00" laneDensity="6.00" occupancy="2.77" waitingTime="0.00" timeLoss="247.33" speed="4.44" speedRelative="0.19" departed="91" arrived="0" entered="0" left="91" laneChangedFrom="0" laneChangedTo="0"/>
        <edge id="-331" sampledSeconds="1501.44" traveltime="16.58" overlapTraveltime="16.86" density="1.86" laneDensity="1.86" occupancy="0.92" waitingTime="0.00" timeLoss="534.40" speed="14.97" speedRelative="0.64" departed="91" arrived="0" entered="0" left="91" laneChangedFrom="0" laneChangedTo="0"/>
    </interval>
</meandata>
