<?xml version="1.0" encoding="UTF-8"?>

<!-- generated on 2025-02-27 16:50:15 by Eclipse SUMO sumo Version 1.21.0
<sumoConfiguration xmlns:xsi="http://www.w3.org/2001/XMLSchema-instance" xsi:noNamespaceSchemaLocation="http://sumo.dlr.de/xsd/sumoConfiguration.xsd">

    <input>
        <net-file value="chatt.net.xml"/>
        <route-files value="chatt.rou.xml"/>
        <additional-files value="updated_signal.xml,Edge.add.xml"/>
    </input>

    <output>
        <edgedata-output value="EdgeData.xml"/>
    </output>

    <time>
        <begin value="28800"/>
        <end value="32400"/>
        <step-length value="1"/>
    </time>

    <report>
        <no-warnings value="true"/>
        <no-step-log value="true"/>
    </report>

    <traci_server>
        <remote-port value="52486"/>
    </traci_server>

    <random_number>
        <seed value="101"/>
    </random_number>

    <gui_only>
        <start value="t"/>
    </gui_only>

</sumoConfiguration>
-->

<meandata xmlns:xsi="http://www.w3.org/2001/XMLSchema-instance" xsi:noNamespaceSchemaLocation="http://sumo.dlr.de/xsd/meandata_file.xsd">
    <interval begin="28800.00" end="32400.00" id="1">
        <edge id="-280" sampledSeconds="12928.99" traveltime="16.03" overlapTraveltime="16.70" density="78.02" laneDensity="26.01" occupancy="12.23" waitingTime="7424.12" timeLoss="10416.96" speed="3.06" speedRelative="0.19" departed="0" arrived="0" entered="778" left="772" laneChangedFrom="45" laneChangedTo="45"/>
        <edge id="-2801" sampledSeconds="23715.84" traveltime="29.82" overlapTraveltime="30.76" density="18.50" laneDensity="9.25" occupancy="4.59" waitingTime="1052.00" timeLoss="5914.41" speed="11.74" speedRelative="0.75" departed="785" arrived="0" entered="0" left="778" laneChangedFrom="235" laneChangedTo="235"/>
        <edge id="-281" sampledSeconds="14789.08" traveltime="28.86" overlapTraveltime="29.83" density="86.87" laneDensity="21.72" occupancy="10.49" waitingTime="8249.00" timeLoss="13183.95" speed="1.75" speedRelative="0.11" departed="0" arrived="0" entered="497" left="496" laneChangedFrom="196" laneChangedTo="196" teleported="1"/>
        <edge id="-282" sampledSeconds="122.98" traveltime="3.13" overlapTraveltime="3.63" density="1.52" laneDensity="1.52" occupancy="0.60" waitingTime="0.00" timeLoss="83.53" speed="7.57" speedRelative="0.32" departed="0" arrived="35" entered="35" left="0" laneChangedFrom="0" laneChangedTo="0"/>
        <edge id="-283" sampledSeconds="280.00" traveltime="7.37" overlapTraveltime="7.66" density="0.87" laneDensity="0.87" occupancy="0.40" waitingTime="0.00" timeLoss="127.56" speed="12.34" speedRelative="0.53" departed="0" arrived="37" entered="37" left="0" laneChangedFrom="0" laneChangedTo="0"/>
        <edge id="-284" sampledSeconds="4799.57" traveltime="14.90" overlapTraveltime="15.84" density="14.26" laneDensity="4.75" occupancy="2.27" waitingTime="1494.00" timeLoss="2907.92" speed="6.22" speedRelative="0.40" departed="0" arrived="0" entered="303" left="303" laneChangedFrom="41" laneChangedTo="41"/>
        <edge id="-285" sampledSeconds="9827.09" traveltime="25.29" overlapTraveltime="26.25" density="41.57" laneDensity="10.39" occupancy="5.09" waitingTime="6464.00" timeLoss="8353.80" speed="2.69" speedRelative="0.15" departed="0" arrived="0" entered="378" left="366" laneChangedFrom="131" laneChangedTo="131"/>
        <edge id="-2851" sampledSeconds="3676.42" traveltime="9.42" overlapTraveltime="9.73" density="7.95" laneDensity="2.65" occupancy="1.24" waitingTime="1.00" timeLoss="818.81" speed="13.72" speedRelative="0.77" departed="0" arrived="0" entered="378" left="378" laneChangedFrom="208" laneChangedTo="208"/>
        <edge id="-286" sampledSeconds="11921.96" traveltime="9.86" overlapTraveltime="10.41" density="36.56" laneDensity="7.31" occupancy="3.43" waitingTime="1196.00" timeLoss="4942.21" speed="9.18" speedRelative="0.58" departed="0" arrived="0" entered="1147" left="1143" laneChangedFrom="328" laneChangedTo="328"/>
        <edge id="-287" sampledSeconds="3518.05" traveltime="20.99" overlapTraveltime="21.22" density="2.52" laneDensity="1.26" occupancy="0.61" waitingTime="1.00" timeLoss="719.91" speed="18.52" speedRelative="0.79" departed="0" arrived="166" entered="166" left="0" laneChangedFrom="16" laneChangedTo="16"/>
        <edge id="-288" sampledSeconds="16617.41" traveltime="21.11" overlapTraveltime="21.69" density="23.78" laneDensity="7.93" occupancy="3.84" waitingTime="3397.00" timeLoss="8013.14" speed="9.18" speedRelative="0.51" departed="0" arrived="0" entered="767" left="764" laneChangedFrom="396" laneChangedTo="396"/>
        <edge id="-289" sampledSeconds="3266.89" traveltime="17.18" overlapTraveltime="17.41" density="2.97" laneDensity="1.49" occupancy="0.72" waitingTime="0.00" timeLoss="730.23" speed="17.82" speedRelative="0.76" departed="0" arrived="188" entered="188" left="0" laneChangedFrom="7" laneChangedTo="7"/>
        <edge id="-290" sampledSeconds="3279.53" traveltime="5.96" overlapTraveltime="6.66" density="22.44" laneDensity="7.48" occupancy="3.16" waitingTime="38.00" timeLoss="2160.40" speed="6.85" speedRelative="0.34" departed="0" arrived="0" entered="510" left="510" laneChangedFrom="77" laneChangedTo="77" teleported="18"/>
        <edge id="-291" sampledSeconds="0.00" departed="0" arrived="0" entered="0" left="0" laneChangedFrom="0" laneChangedTo="0"/>
        <edge id="-292" sampledSeconds="33392.10" traveltime="47.86" overlapTraveltime="48.93" density="24.89" laneDensity="8.30" occupancy="4.11" waitingTime="12399.00" timeLoss="22252.48" speed="7.72" speedRelative="0.33" departed="693" arrived="0" entered="0" left="691" laneChangedFrom="588" laneChangedTo="588"/>
        <edge id="-293" sampledSeconds="5196.49" traveltime="8.12" overlapTraveltime="8.68" density="16.68" laneDensity="8.34" occupancy="3.84" waitingTime="109.00" timeLoss="2473.51" speed="10.55" speedRelative="0.52" departed="0" arrived="0" entered="603" left="601" laneChangedFrom="126" laneChangedTo="126" teleported="3"/>
        <edge id="-294" sampledSeconds="710.25" traveltime="21.99" overlapTraveltime="22.22" density="0.49" laneDensity="0.49" occupancy="0.24" waitingTime="0.00" timeLoss="144.52" speed="18.47" speedRelative="0.79" departed="0" arrived="32" entered="32" left="0" laneChangedFrom="0" laneChangedTo="0"/>
        <edge id="-295" sampledSeconds="889.19" traveltime="1.66" overlapTraveltime="1.97" density="10.97" laneDensity="5.49" occupancy="2.21" waitingTime="0.00" timeLoss="270.77" speed="13.94" speedRelative="0.69" departed="0" arrived="464" entered="465" left="1" laneChangedFrom="0" laneChangedTo="0" teleported="1"/>
        <edge id="-296" sampledSeconds="745.53" traveltime="8.57" overlapTraveltime="8.81" density="1.69" laneDensity="1.69" occupancy="0.79" waitingTime="0.00" timeLoss="270.07" speed="14.49" speedRelative="0.62" departed="0" arrived="85" entered="85" left="0" laneChangedFrom="0" laneChangedTo="0"/>
        <edge id="-297" sampledSeconds="7062.72" traveltime="16.42" overlapTraveltime="17.09" density="48.33" laneDensity="24.17" occupancy="11.63" waitingTime="4203.00" timeLoss="6102.88" speed="2.67" speedRelative="0.13" departed="0" arrived="0" entered="418" left="407" laneChangedFrom="60" laneChangedTo="60"/>
        <edge id="-298" sampledSeconds="4363.16" traveltime="8.43" overlapTraveltime="8.87" density="14.00" laneDensity="4.67" occupancy="2.19" waitingTime="577.00" timeLoss="2117.95" speed="10.32" speedRelative="0.51" departed="0" arrived="0" entered="493" left="487" laneChangedFrom="40" laneChangedTo="40"/>
        <edge id="-299" sampledSeconds="2969.56" traveltime="12.03" overlapTraveltime="12.25" density="3.33" laneDensity="3.33" occupancy="1.63" waitingTime="0.00" timeLoss="309.63" speed="20.60" speedRelative="0.88" departed="0" arrived="243" entered="243" left="0" laneChangedFrom="0" laneChangedTo="0"/>
        <edge id="-300" sampledSeconds="5481.63" traveltime="29.93" overlapTraveltime="31.15" density="16.81" laneDensity="4.20" occupancy="2.03" waitingTime="3272.00" timeLoss="4409.07" speed="3.07" speedRelative="0.19" departed="0" arrived="0" entered="176" left="176" laneChangedFrom="216" laneChangedTo="216"/>
        <edge id="-301" sampledSeconds="264.14" traveltime="6.74" overlapTraveltime="7.01" density="0.84" laneDensity="0.42" occupancy="0.19" waitingTime="0.00" timeLoss="114.89" speed="13.23" speedRelative="0.57" departed="0" arrived="38" entered="38" left="0" laneChangedFrom="0" laneChangedTo="0"/>
        <edge id="-302" sampledSeconds="5405.09" traveltime="4.41" overlapTraveltime="5.01" density="42.08" laneDensity="21.04" occupancy="9.28" waitingTime="64.00" timeLoss="2695.84" speed="8.12" speedRelative="0.52" departed="0" arrived="0" entered="1079" left="1078" laneChangedFrom="29" laneChangedTo="29"/>
        <edge id="-303" sampledSeconds="869.85" traveltime="10.83" overlapTraveltime="11.06" density="1.38" laneDensity="1.38" occupancy="0.66" waitingTime="0.00" timeLoss="257.71" speed="16.26" speedRelative="0.70" departed="0" arrived="78" entered="80" left="0" laneChangedFrom="0" laneChangedTo="0"/>
        <edge id="-304" sampledSeconds="5731.55" traveltime="28.82" overlapTraveltime="29.15" density="3.96" laneDensity="1.98" occupancy="0.97" waitingTime="0.00" timeLoss="563.00" speed="13.97" speedRelative="0.89" departed="0" arrived="197" entered="197" left="0" laneChangedFrom="64" laneChangedTo="64"/>
        <edge id="-305" sampledSeconds="6102.80" traveltime="24.49" overlapTraveltime="24.76" density="4.14" laneDensity="2.07" occupancy="1.01" waitingTime="0.00" timeLoss="1059.40" speed="16.74" speedRelative="0.83" departed="0" arrived="246" entered="248" left="0" laneChangedFrom="35" laneChangedTo="35"/>
        <edge id="-306" sampledSeconds="1293.08" traveltime="4.96" overlapTraveltime="5.29" density="6.66" laneDensity="6.66" occupancy="2.97" waitingTime="2.00" timeLoss="670.86" speed="11.14" speedRelative="0.48" departed="0" arrived="248" entered="249" left="0" laneChangedFrom="0" laneChangedTo="0"/>
        <edge id="-307" sampledSeconds="6919.04" traveltime="6.33" overlapTraveltime="6.82" density="31.53" laneDensity="10.51" occupancy="4.71" waitingTime="90.00" timeLoss="2809.25" speed="9.67" speedRelative="0.61" departed="0" arrived="0" entered="1040" left="1034" laneChangedFrom="298" laneChangedTo="298" teleported="23"/>
        <edge id="-308" sampledSeconds="28848.94" traveltime="69.69" overlapTraveltime="70.63" density="19.58" laneDensity="6.53" occupancy="3.24" waitingTime="15106.00" timeLoss="20411.27" speed="5.87" speedRelative="0.29" departed="415" arrived="0" entered="0" left="411" laneChangedFrom="372" laneChangedTo="372"/>
        <edge id="-309" sampledSeconds="2136.59" traveltime="48.92" overlapTraveltime="50.34" density="1.46" laneDensity="0.73" occupancy="0.36" waitingTime="897.00" timeLoss="1388.29" speed="8.15" speedRelative="0.35" departed="43" arrived="0" entered="0" left="43" laneChangedFrom="19" laneChangedTo="19"/>
        <edge id="-310" sampledSeconds="49085.49" traveltime="64.37" overlapTraveltime="65.17" density="25.70" laneDensity="6.43" occupancy="3.20" waitingTime="16645.00" timeLoss="31538.89" speed="8.22" speedRelative="0.35" departed="765" arrived="0" entered="0" left="751" laneChangedFrom="1897" laneChangedTo="1897"/>
        <edge id="-311" sampledSeconds="0.00" departed="0" arrived="0" entered="0" left="0" laneChangedFrom="0" laneChangedTo="0"/>
        <edge id="-312" sampledSeconds="3539.99" traveltime="7.77" overlapTraveltime="8.22" density="43.68" laneDensity="14.56" occupancy="6.93" waitingTime="880.00" timeLoss="2948.54" speed="3.35" speedRelative="0.17" departed="530" arrived="0" entered="0" left="529" laneChangedFrom="81" laneChangedTo="81"/>
        <edge id="-313" sampledSeconds="2271.24" traveltime="6.73" overlapTraveltime="7.28" density="13.34" laneDensity="4.45" occupancy="2.04" waitingTime="515.00" timeLoss="1229.72" speed="7.18" speedRelative="0.46" departed="0" arrived="0" entered="312" left="312" laneChangedFrom="24" laneChangedTo="24"/>
        <edge id="-314" sampledSeconds="1922.31" traveltime="2.29" overlapTraveltime="2.69" density="24.06" laneDensity="24.06" occupancy="9.63" waitingTime="0.00" timeLoss="1082.51" speed="10.09" speedRelative="0.43" departed="0" arrived="742" entered="743" left="0" laneChangedFrom="0" laneChangedTo="0"/>
        <edge id="-315" sampledSeconds="3900.00" traveltime="29.51" overlapTraveltime="30.60" density="6.50" laneDensity="1.30" occupancy="0.63" waitingTime="1777.00" timeLoss="2494.23" speed="5.61" speedRelative="0.36" departed="0" arrived="0" entered="128" left="126" laneChangedFrom="138" laneChangedTo="138"/>
        <edge id="-316" sampledSeconds="155.44" traveltime="4.86" overlapTraveltime="5.31" density="1.95" laneDensity="1.95" occupancy="0.91" waitingTime="0.00" timeLoss="113.86" speed="5.12" speedRelative="0.22" departed="36" arrived="0" entered="0" left="36" laneChangedFrom="0" laneChangedTo="0"/>
        <edge id="-317" sampledSeconds="3863.30" traveltime="100.75" overlapTraveltime="102.01" density="47.80" laneDensity="23.90" occupancy="11.89" waitingTime="3459.00" timeLoss="3813.91" speed="0.27" speedRelative="0.01" departed="49" arrived="0" entered="0" left="48" laneChangedFrom="31" laneChangedTo="31"/>
        <edge id="-318" sampledSeconds="4381.52" traveltime="42.32" overlapTraveltime="44.13" density="13.59" laneDensity="6.80" occupancy="3.37" waitingTime="2879.00" timeLoss="3973.06" speed="2.14" speedRelative="0.09" departed="107" arrived="0" entered="0" left="106" laneChangedFrom="14" laneChangedTo="14"/>
        <edge id="-319" sampledSeconds="7899.41" traveltime="49.31" overlapTraveltime="50.52" density="25.01" laneDensity="8.34" occupancy="4.13" waitingTime="5529.00" timeLoss="7247.39" speed="1.84" speedRelative="0.08" departed="167" arrived="0" entered="0" left="163" laneChangedFrom="248" laneChangedTo="248"/>
        <edge id="-320" sampledSeconds="202.84" traveltime="5.15" overlapTraveltime="5.58" density="2.31" laneDensity="2.31" occupancy="1.09" waitingTime="0.00" timeLoss="147.77" speed="5.27" speedRelative="0.23" departed="44" arrived="0" entered="0" left="44" laneChangedFrom="0" laneChangedTo="0"/>
        <edge id="-321" sampledSeconds="492.43" traveltime="10.19" overlapTraveltime="10.99" density="3.83" laneDensity="0.77" occupancy="0.36" waitingTime="262.00" timeLoss="373.64" speed="3.70" speedRelative="0.24" departed="0" arrived="0" entered="45" left="45" laneChangedFrom="14" laneChangedTo="14"/>
        <edge id="-322" sampledSeconds="2776.41" traveltime="3.75" overlapTraveltime="4.26" density="17.59" laneDensity="8.79" occupancy="3.96" waitingTime="11.00" timeLoss="816.32" speed="11.45" speedRelative="0.73" departed="0" arrived="0" entered="651" left="651" laneChangedFrom="17" laneChangedTo="17"/>
        <edge id="-3221" sampledSeconds="6507.78" traveltime="9.64" overlapTraveltime="9.98" density="14.71" laneDensity="7.35" occupancy="3.48" waitingTime="0.00" timeLoss="1143.91" speed="12.82" speedRelative="0.81" departed="0" arrived="0" entered="654" left="651" laneChangedFrom="160" laneChangedTo="160"/>
        <edge id="-323" sampledSeconds="1349.58" traveltime="2.17" overlapTraveltime="2.53" density="15.36" laneDensity="15.36" occupancy="6.31" waitingTime="0.00" timeLoss="675.76" speed="11.61" speedRelative="0.50" departed="0" arrived="549" entered="549" left="0" laneChangedFrom="0" laneChangedTo="0"/>
        <edge id="-324" sampledSeconds="5771.97" traveltime="48.40" overlapTraveltime="49.55" density="13.07" laneDensity="6.54" occupancy="3.24" waitingTime="3802.00" timeLoss="5116.51" speed="2.58" speedRelative="0.11" departed="122" arrived="0" entered="0" left="120" laneChangedFrom="81" laneChangedTo="81"/>
        <edge id="-325" sampledSeconds="541.03" traveltime="24.24" overlapTraveltime="25.60" density="0.86" laneDensity="0.43" occupancy="0.21" waitingTime="142.00" timeLoss="376.13" speed="7.02" speedRelative="0.30" departed="22" arrived="0" entered="0" left="22" laneChangedFrom="0" laneChangedTo="0"/>
        <edge id="-326" sampledSeconds="13034.64" traveltime="38.57" overlapTraveltime="39.68" density="67.14" laneDensity="16.78" occupancy="8.29" waitingTime="8888.00" timeLoss="12161.83" speed="1.49" speedRelative="0.06" departed="363" arrived="0" entered="0" left="361" laneChangedFrom="455" laneChangedTo="455"/>
        <edge id="-327" sampledSeconds="11699.82" traveltime="27.84" overlapTraveltime="28.84" density="34.76" laneDensity="11.59" occupancy="5.62" waitingTime="5186.00" timeLoss="9141.45" speed="3.42" speedRelative="0.22" departed="0" arrived="0" entered="406" left="406" laneChangedFrom="223" laneChangedTo="223"/>
        <edge id="-328" sampledSeconds="3975.35" traveltime="19.53" overlapTraveltime="20.64" density="18.12" laneDensity="4.53" occupancy="2.18" waitingTime="2274.00" timeLoss="3174.14" speed="3.20" speedRelative="0.20" departed="0" arrived="0" entered="193" left="190" laneChangedFrom="51" laneChangedTo="51"/>
        <edge id="-329" sampledSeconds="1318.75" traveltime="1.34" overlapTraveltime="1.68" density="22.13" laneDensity="22.13" occupancy="8.45" waitingTime="0.00" timeLoss="588.90" speed="12.81" speedRelative="0.55" departed="0" arrived="821" entered="822" left="0" laneChangedFrom="0" laneChangedTo="0"/>
        <edge id="-330" sampledSeconds="296.27" traveltime="4.31" overlapTraveltime="4.92" density="4.97" laneDensity="4.97" occupancy="2.31" waitingTime="0.00" timeLoss="227.04" speed="4.38" speedRelative="0.19" departed="84" arrived="0" entered="0" left="84" laneChangedFrom="0" laneChangedTo="0"/>
        <edge id="-331" sampledSeconds="722.83" traveltime="16.64" overlapTraveltime="16.94" density="0.81" laneDensity="0.81" occupancy="0.40" waitingTime="0.00" timeLoss="255.67" speed="14.90" speedRelative="0.64" departed="44" arrived="0" entered="0" left="43" laneChangedFrom="0" laneChangedTo="0"/>
    </interval>
</meandata>
