<?xml version="1.0" encoding="UTF-8"?>

<!-- generated on 2025-03-18 17:03:31 by Eclipse SUMO sumo Version 1.21.0
<sumoConfiguration xmlns:xsi="http://www.w3.org/2001/XMLSchema-instance" xsi:noNamespaceSchemaLocation="http://sumo.dlr.de/xsd/sumoConfiguration.xsd">

    <input>
        <net-file value="chatt.net.xml"/>
        <route-files value="chatt.rou.xml"/>
        <additional-files value="updated_signal.xml,Edge.add.xml"/>
    </input>

    <output>
        <edgedata-output value="EdgeData.xml"/>
    </output>

    <time>
        <begin value="28800"/>
        <end value="32400"/>
        <step-length value="1"/>
    </time>

    <report>
        <no-warnings value="true"/>
        <no-step-log value="true"/>
    </report>

    <random_number>
        <seed value="101"/>
    </random_number>

    <gui_only>
        <start value="t"/>
    </gui_only>

</sumoConfiguration>
-->

<meandata xmlns:xsi="http://www.w3.org/2001/XMLSchema-instance" xsi:noNamespaceSchemaLocation="http://sumo.dlr.de/xsd/meandata_file.xsd">
    <interval begin="28800.00" end="32400.00" id="1">
        <edge id="-280" sampledSeconds="11996.56" traveltime="14.63" overlapTraveltime="15.41" density="72.40" laneDensity="24.13" occupancy="11.63" waitingTime="6099.00" timeLoss="9467.20" speed="3.31" speedRelative="0.21" departed="0" arrived="0" entered="779" left="778" laneChangedFrom="115" laneChangedTo="115"/>
        <edge id="-2801" sampledSeconds="21583.35" traveltime="27.55" overlapTraveltime="28.00" density="16.84" laneDensity="8.42" occupancy="4.17" waitingTime="16.00" timeLoss="3756.26" speed="12.90" speedRelative="0.82" departed="785" arrived="0" entered="0" left="779" laneChangedFrom="597" laneChangedTo="597"/>
        <edge id="-281" sampledSeconds="21374.49" traveltime="20.01" overlapTraveltime="20.92" density="125.55" laneDensity="31.39" occupancy="14.96" waitingTime="9030.00" timeLoss="18008.03" speed="2.50" speedRelative="0.16" departed="0" arrived="0" entered="1028" left="1022" laneChangedFrom="302" laneChangedTo="302" teleported="3"/>
        <edge id="-282" sampledSeconds="150.87" traveltime="3.19" overlapTraveltime="3.67" density="1.87" laneDensity="1.87" occupancy="0.73" waitingTime="0.00" timeLoss="102.14" speed="7.49" speedRelative="0.32" departed="0" arrived="42" entered="42" left="0" laneChangedFrom="0" laneChangedTo="0"/>
        <edge id="-283" sampledSeconds="641.84" traveltime="7.61" overlapTraveltime="7.89" density="1.99" laneDensity="1.99" occupancy="0.90" waitingTime="0.00" timeLoss="314.42" speed="11.97" speedRelative="0.51" departed="0" arrived="82" entered="82" left="0" laneChangedFrom="0" laneChangedTo="0"/>
        <edge id="-284" sampledSeconds="5499.58" traveltime="15.84" overlapTraveltime="16.82" density="16.34" laneDensity="5.45" occupancy="2.60" waitingTime="1716.00" timeLoss="3450.36" speed="5.86" speedRelative="0.37" departed="0" arrived="0" entered="327" left="327" laneChangedFrom="43" laneChangedTo="43"/>
        <edge id="-285" sampledSeconds="13107.11" traveltime="22.42" overlapTraveltime="23.23" density="55.44" laneDensity="13.86" occupancy="6.79" waitingTime="8615.00" timeLoss="10897.88" speed="3.04" speedRelative="0.17" departed="0" arrived="0" entered="568" left="560" laneChangedFrom="152" laneChangedTo="152"/>
        <edge id="-2851" sampledSeconds="5513.60" traveltime="9.35" overlapTraveltime="9.66" density="11.93" laneDensity="3.98" occupancy="1.87" waitingTime="2.00" timeLoss="1214.61" speed="13.81" speedRelative="0.77" departed="0" arrived="0" entered="572" left="568" laneChangedFrom="205" laneChangedTo="205"/>
        <edge id="-286" sampledSeconds="13638.59" traveltime="11.76" overlapTraveltime="12.36" density="41.82" laneDensity="8.36" occupancy="3.95" waitingTime="2373.00" timeLoss="6869.44" speed="7.73" speedRelative="0.49" departed="0" arrived="0" entered="1106" left="1102" laneChangedFrom="364" laneChangedTo="364"/>
        <edge id="-287" sampledSeconds="4023.88" traveltime="21.25" overlapTraveltime="21.48" density="2.88" laneDensity="1.44" occupancy="0.70" waitingTime="3.00" timeLoss="831.68" speed="18.29" speedRelative="0.78" departed="0" arrived="186" entered="189" left="0" laneChangedFrom="18" laneChangedTo="18"/>
        <edge id="-288" sampledSeconds="15140.10" traveltime="21.68" overlapTraveltime="22.31" density="21.67" laneDensity="7.22" occupancy="3.50" waitingTime="3004.00" timeLoss="7464.83" speed="8.92" speedRelative="0.50" departed="0" arrived="0" entered="680" left="675" laneChangedFrom="403" laneChangedTo="403"/>
        <edge id="-289" sampledSeconds="4009.08" traveltime="17.39" overlapTraveltime="17.62" density="3.65" laneDensity="1.82" occupancy="0.88" waitingTime="0.00" timeLoss="946.17" speed="17.61" speedRelative="0.75" departed="0" arrived="228" entered="228" left="0" laneChangedFrom="13" laneChangedTo="13"/>
        <edge id="-290" sampledSeconds="6226.39" traveltime="8.86" overlapTraveltime="9.68" density="42.61" laneDensity="14.20" occupancy="6.39" waitingTime="1645.00" timeLoss="4768.41" speed="4.71" speedRelative="0.23" departed="0" arrived="0" entered="680" left="680" laneChangedFrom="216" laneChangedTo="216" teleported="38"/>
        <edge id="-291" sampledSeconds="0.00" departed="0" arrived="0" entered="0" left="0" laneChangedFrom="0" laneChangedTo="0"/>
        <edge id="-292" sampledSeconds="31710.48" traveltime="45.53" overlapTraveltime="46.62" density="23.63" laneDensity="7.88" occupancy="3.90" waitingTime="11771.00" timeLoss="20547.78" speed="8.10" speedRelative="0.35" departed="693" arrived="0" entered="0" left="688" laneChangedFrom="570" laneChangedTo="570"/>
        <edge id="-293" sampledSeconds="4880.54" traveltime="7.60" overlapTraveltime="8.11" density="15.66" laneDensity="7.83" occupancy="3.60" waitingTime="17.00" timeLoss="2156.93" speed="11.29" speedRelative="0.56" departed="0" arrived="0" entered="607" left="605" laneChangedFrom="95" laneChangedTo="95" teleported="4"/>
        <edge id="-294" sampledSeconds="682.90" traveltime="22.56" overlapTraveltime="22.80" density="0.47" laneDensity="0.47" occupancy="0.23" waitingTime="0.00" timeLoss="137.63" speed="18.00" speedRelative="0.77" departed="0" arrived="30" entered="30" left="0" laneChangedFrom="0" laneChangedTo="0"/>
        <edge id="-295" sampledSeconds="1182.46" traveltime="1.76" overlapTraveltime="2.08" density="14.59" laneDensity="7.30" occupancy="2.92" waitingTime="0.00" timeLoss="407.64" speed="13.23" speedRelative="0.65" departed="0" arrived="582" entered="584" left="2" laneChangedFrom="2" laneChangedTo="2" teleported="2"/>
        <edge id="-296" sampledSeconds="681.84" traveltime="8.66" overlapTraveltime="8.90" density="1.54" laneDensity="1.54" occupancy="0.72" waitingTime="0.00" timeLoss="262.00" speed="14.34" speedRelative="0.61" departed="0" arrived="77" entered="77" left="0" laneChangedFrom="0" laneChangedTo="0"/>
        <edge id="-297" sampledSeconds="5590.75" traveltime="15.56" overlapTraveltime="16.29" density="38.26" laneDensity="19.13" occupancy="9.17" waitingTime="3221.00" timeLoss="4791.67" speed="2.80" speedRelative="0.14" departed="0" arrived="0" entered="345" left="340" laneChangedFrom="65" laneChangedTo="65"/>
        <edge id="-298" sampledSeconds="5295.53" traveltime="8.33" overlapTraveltime="8.82" density="16.99" laneDensity="5.66" occupancy="2.65" waitingTime="628.00" timeLoss="2569.44" speed="10.39" speedRelative="0.51" departed="0" arrived="0" entered="604" left="596" laneChangedFrom="82" laneChangedTo="82"/>
        <edge id="-299" sampledSeconds="5561.08" traveltime="12.61" overlapTraveltime="12.84" density="6.24" laneDensity="6.24" occupancy="3.02" waitingTime="0.00" timeLoss="825.18" speed="19.66" speedRelative="0.84" departed="0" arrived="436" entered="436" left="0" laneChangedFrom="0" laneChangedTo="0"/>
        <edge id="-300" sampledSeconds="9886.27" traveltime="21.69" overlapTraveltime="22.57" density="30.32" laneDensity="7.58" occupancy="3.66" waitingTime="5124.00" timeLoss="7224.92" speed="4.23" speedRelative="0.27" departed="0" arrived="0" entered="438" left="438" laneChangedFrom="258" laneChangedTo="258"/>
        <edge id="-301" sampledSeconds="415.50" traveltime="7.33" overlapTraveltime="7.61" density="1.32" laneDensity="0.66" occupancy="0.30" waitingTime="0.00" timeLoss="197.99" speed="12.18" speedRelative="0.52" departed="0" arrived="55" entered="55" left="0" laneChangedFrom="0" laneChangedTo="0"/>
        <edge id="-302" sampledSeconds="5491.68" traveltime="4.59" overlapTraveltime="5.20" density="42.75" laneDensity="21.38" occupancy="9.43" waitingTime="66.00" timeLoss="2846.06" speed="7.82" speedRelative="0.50" departed="0" arrived="0" entered="1058" left="1055" laneChangedFrom="32" laneChangedTo="32"/>
        <edge id="-303" sampledSeconds="944.14" traveltime="11.75" overlapTraveltime="11.99" density="1.50" laneDensity="1.50" occupancy="0.70" waitingTime="0.00" timeLoss="325.69" speed="15.00" speedRelative="0.64" departed="0" arrived="79" entered="79" left="0" laneChangedFrom="0" laneChangedTo="0"/>
        <edge id="-304" sampledSeconds="6261.02" traveltime="28.59" overlapTraveltime="28.92" density="4.32" laneDensity="2.16" occupancy="1.06" waitingTime="0.00" timeLoss="674.41" speed="14.09" speedRelative="0.90" departed="0" arrived="214" entered="218" left="0" laneChangedFrom="80" laneChangedTo="80"/>
        <edge id="-305" sampledSeconds="6198.27" traveltime="24.76" overlapTraveltime="25.02" density="4.21" laneDensity="2.10" occupancy="1.02" waitingTime="0.00" timeLoss="1074.76" speed="16.56" speedRelative="0.82" departed="0" arrived="248" entered="248" left="0" laneChangedFrom="35" laneChangedTo="35"/>
        <edge id="-306" sampledSeconds="1437.18" traveltime="5.25" overlapTraveltime="5.59" density="7.40" laneDensity="7.40" occupancy="3.26" waitingTime="0.00" timeLoss="781.03" speed="10.53" speedRelative="0.45" departed="0" arrived="260" entered="263" left="2" laneChangedFrom="0" laneChangedTo="0" teleported="2"/>
        <edge id="-307" sampledSeconds="11083.53" traveltime="9.80" overlapTraveltime="10.68" density="50.51" laneDensity="16.84" occupancy="7.70" waitingTime="660.00" timeLoss="6721.51" speed="6.18" speedRelative="0.39" departed="0" arrived="0" entered="1042" left="1041" laneChangedFrom="343" laneChangedTo="343" teleported="3"/>
        <edge id="-308" sampledSeconds="27308.69" traveltime="65.59" overlapTraveltime="66.55" density="18.53" laneDensity="6.18" occupancy="3.07" waitingTime="13888.00" timeLoss="18792.44" speed="6.23" speedRelative="0.31" departed="417" arrived="0" entered="0" left="408" laneChangedFrom="517" laneChangedTo="517"/>
        <edge id="-309" sampledSeconds="2400.70" traveltime="55.15" overlapTraveltime="56.61" density="1.64" laneDensity="0.82" occupancy="0.41" waitingTime="1178.00" timeLoss="1653.57" speed="7.25" speedRelative="0.31" departed="43" arrived="0" entered="0" left="42" laneChangedFrom="26" laneChangedTo="26"/>
        <edge id="-310" sampledSeconds="47403.18" traveltime="62.07" overlapTraveltime="62.89" density="24.82" laneDensity="6.21" occupancy="3.09" waitingTime="15586.00" timeLoss="29851.80" speed="8.51" speedRelative="0.36" departed="765" arrived="0" entered="0" left="754" laneChangedFrom="1904" laneChangedTo="1904"/>
        <edge id="-311" sampledSeconds="0.00" departed="0" arrived="0" entered="0" left="0" laneChangedFrom="0" laneChangedTo="0"/>
        <edge id="-312" sampledSeconds="3634.65" traveltime="7.96" overlapTraveltime="8.41" density="44.85" laneDensity="14.95" occupancy="7.12" waitingTime="929.00" timeLoss="3041.70" speed="3.27" speedRelative="0.16" departed="531" arrived="0" entered="0" left="531" laneChangedFrom="59" laneChangedTo="59"/>
        <edge id="-313" sampledSeconds="3438.98" traveltime="8.98" overlapTraveltime="9.57" density="20.20" laneDensity="6.73" occupancy="3.14" waitingTime="1340.00" timeLoss="2241.01" speed="5.46" speedRelative="0.35" departed="0" arrived="0" entered="361" left="357" laneChangedFrom="51" laneChangedTo="51"/>
        <edge id="-314" sampledSeconds="2201.15" traveltime="2.50" overlapTraveltime="2.94" density="27.55" laneDensity="27.55" occupancy="11.00" waitingTime="5.00" timeLoss="1319.59" speed="9.26" speedRelative="0.40" departed="0" arrived="783" entered="784" left="0" laneChangedFrom="0" laneChangedTo="0"/>
        <edge id="-315" sampledSeconds="14561.88" traveltime="24.65" overlapTraveltime="25.51" density="24.25" laneDensity="4.85" occupancy="2.35" waitingTime="4774.00" timeLoss="8281.66" speed="6.73" speedRelative="0.43" departed="0" arrived="0" entered="574" left="567" laneChangedFrom="609" laneChangedTo="609"/>
        <edge id="-316" sampledSeconds="426.23" traveltime="4.82" overlapTraveltime="5.34" density="5.34" laneDensity="5.34" occupancy="2.51" waitingTime="0.00" timeLoss="314.64" speed="5.09" speedRelative="0.22" departed="100" arrived="0" entered="0" left="100" laneChangedFrom="0" laneChangedTo="0"/>
        <edge id="-317" sampledSeconds="4297.99" traveltime="113.34" overlapTraveltime="116.43" density="53.18" laneDensity="26.59" occupancy="13.23" waitingTime="3895.00" timeLoss="4250.18" speed="0.24" speedRelative="0.01" departed="49" arrived="0" entered="0" left="47" laneChangedFrom="30" laneChangedTo="30" teleported="1"/>
        <edge id="-318" sampledSeconds="3764.17" traveltime="36.05" overlapTraveltime="37.92" density="11.68" laneDensity="5.84" occupancy="2.88" waitingTime="2315.00" timeLoss="3347.64" speed="2.49" speedRelative="0.11" departed="107" arrived="0" entered="0" left="104" laneChangedFrom="10" laneChangedTo="10"/>
        <edge id="-319" sampledSeconds="8138.20" traveltime="50.67" overlapTraveltime="51.82" density="25.76" laneDensity="8.59" occupancy="4.26" waitingTime="5812.00" timeLoss="7495.08" speed="1.79" speedRelative="0.08" departed="167" arrived="0" entered="0" left="165" laneChangedFrom="243" laneChangedTo="243"/>
        <edge id="-320" sampledSeconds="452.56" traveltime="5.04" overlapTraveltime="5.48" density="5.15" laneDensity="5.15" occupancy="2.43" waitingTime="0.00" timeLoss="328.35" speed="5.37" speedRelative="0.23" departed="100" arrived="0" entered="0" left="100" laneChangedFrom="0" laneChangedTo="0"/>
        <edge id="-321" sampledSeconds="4320.08" traveltime="12.00" overlapTraveltime="12.67" density="33.63" laneDensity="6.73" occupancy="3.19" waitingTime="2529.00" timeLoss="3429.57" speed="3.21" speedRelative="0.20" departed="0" arrived="0" entered="341" left="341" laneChangedFrom="80" laneChangedTo="80"/>
        <edge id="-322" sampledSeconds="2730.75" traveltime="4.01" overlapTraveltime="4.57" density="17.30" laneDensity="8.65" occupancy="3.90" waitingTime="29.00" timeLoss="928.35" speed="10.69" speedRelative="0.68" departed="0" arrived="0" entered="598" left="597" laneChangedFrom="9" laneChangedTo="9"/>
        <edge id="-3221" sampledSeconds="6002.44" traveltime="9.69" overlapTraveltime="10.03" density="13.56" laneDensity="6.78" occupancy="3.20" waitingTime="0.00" timeLoss="1095.49" speed="12.75" speedRelative="0.81" departed="0" arrived="0" entered="599" left="598" laneChangedFrom="155" laneChangedTo="155"/>
        <edge id="-323" sampledSeconds="2072.11" traveltime="2.35" overlapTraveltime="2.74" density="23.59" laneDensity="23.59" occupancy="9.67" waitingTime="0.00" timeLoss="1107.63" speed="10.74" speedRelative="0.46" departed="0" arrived="784" entered="784" left="0" laneChangedFrom="0" laneChangedTo="0"/>
        <edge id="-324" sampledSeconds="5501.25" traveltime="45.89" overlapTraveltime="47.08" density="12.46" laneDensity="6.23" occupancy="3.08" waitingTime="3568.00" timeLoss="4850.28" speed="2.71" speedRelative="0.12" departed="122" arrived="0" entered="0" left="121" laneChangedFrom="77" laneChangedTo="77"/>
        <edge id="-325" sampledSeconds="621.96" traveltime="28.01" overlapTraveltime="29.49" density="0.99" laneDensity="0.49" occupancy="0.24" waitingTime="235.00" timeLoss="458.92" speed="6.09" speedRelative="0.26" departed="22" arrived="0" entered="0" left="22" laneChangedFrom="5" laneChangedTo="5"/>
        <edge id="-326" sampledSeconds="13004.91" traveltime="38.41" overlapTraveltime="39.88" density="66.98" laneDensity="16.75" occupancy="8.28" waitingTime="9006.00" timeLoss="12146.67" speed="1.48" speedRelative="0.06" departed="363" arrived="0" entered="0" left="359" laneChangedFrom="434" laneChangedTo="434"/>
        <edge id="-327" sampledSeconds="27466.17" traveltime="27.30" overlapTraveltime="28.29" density="81.61" laneDensity="27.20" occupancy="13.14" waitingTime="10182.00" timeLoss="21331.68" speed="3.48" speedRelative="0.22" departed="0" arrived="0" entered="971" left="970" laneChangedFrom="496" laneChangedTo="496"/>
        <edge id="-328" sampledSeconds="5519.25" traveltime="23.26" overlapTraveltime="24.43" density="25.15" laneDensity="6.29" occupancy="3.03" waitingTime="3382.00" timeLoss="4575.09" speed="2.70" speedRelative="0.17" departed="0" arrived="0" entered="226" left="226" laneChangedFrom="68" laneChangedTo="68"/>
        <edge id="-329" sampledSeconds="645.82" traveltime="2.04" overlapTraveltime="2.50" density="10.84" laneDensity="10.84" occupancy="4.00" waitingTime="0.00" timeLoss="405.06" speed="8.62" speedRelative="0.37" departed="0" arrived="271" entered="271" left="0" laneChangedFrom="0" laneChangedTo="0"/>
        <edge id="-330" sampledSeconds="353.37" traveltime="4.27" overlapTraveltime="4.86" density="5.93" laneDensity="5.93" occupancy="2.74" waitingTime="0.00" timeLoss="269.75" speed="4.43" speedRelative="0.19" departed="100" arrived="0" entered="0" left="100" laneChangedFrom="0" laneChangedTo="0"/>
        <edge id="-331" sampledSeconds="1652.79" traveltime="16.61" overlapTraveltime="16.89" density="1.86" laneDensity="1.86" occupancy="0.92" waitingTime="0.00" timeLoss="587.67" speed="14.95" speedRelative="0.64" departed="100" arrived="0" entered="0" left="100" laneChangedFrom="0" laneChangedTo="0"/>
    </interval>
</meandata>
