<?xml version="1.0" encoding="UTF-8"?>

<!-- generated on 2025-03-13 17:24:13 by Eclipse SUMO sumo Version 1.21.0
<sumoConfiguration xmlns:xsi="http://www.w3.org/2001/XMLSchema-instance" xsi:noNamespaceSchemaLocation="http://sumo.dlr.de/xsd/sumoConfiguration.xsd">

    <input>
        <net-file value="chatt.net.xml"/>
        <route-files value="chatt.rou.xml"/>
        <additional-files value="updated_signal.xml,Edge.add.xml"/>
    </input>

    <output>
        <edgedata-output value="EdgeData.xml"/>
    </output>

    <time>
        <begin value="28800"/>
        <end value="32400"/>
        <step-length value="1"/>
    </time>

    <report>
        <no-warnings value="true"/>
        <no-step-log value="true"/>
    </report>

    <random_number>
        <seed value="101"/>
    </random_number>

    <gui_only>
        <start value="t"/>
    </gui_only>

</sumoConfiguration>
-->

<meandata xmlns:xsi="http://www.w3.org/2001/XMLSchema-instance" xsi:noNamespaceSchemaLocation="http://sumo.dlr.de/xsd/meandata_file.xsd">
    <interval begin="28800.00" end="32400.00" id="1">
        <edge id="-280" sampledSeconds="12833.58" traveltime="15.84" overlapTraveltime="16.48" density="77.45" laneDensity="25.82" occupancy="12.05" waitingTime="7487.78" timeLoss="10295.13" speed="3.10" speedRelative="0.20" departed="0" arrived="0" entered="780" left="777" laneChangedFrom="40" laneChangedTo="40"/>
        <edge id="-2801" sampledSeconds="24038.03" traveltime="30.12" overlapTraveltime="31.18" density="18.75" laneDensity="9.38" occupancy="4.65" waitingTime="1283.00" timeLoss="6163.06" speed="11.58" speedRelative="0.74" departed="785" arrived="0" entered="0" left="780" laneChangedFrom="234" laneChangedTo="234"/>
        <edge id="-281" sampledSeconds="12357.94" traveltime="24.02" overlapTraveltime="24.99" density="72.59" laneDensity="18.15" occupancy="8.72" waitingTime="6411.00" timeLoss="10748.34" speed="2.09" speedRelative="0.13" departed="0" arrived="0" entered="496" left="492" laneChangedFrom="204" laneChangedTo="204"/>
        <edge id="-282" sampledSeconds="112.32" traveltime="3.30" overlapTraveltime="3.86" density="1.39" laneDensity="1.39" occupancy="0.55" waitingTime="0.00" timeLoss="78.11" speed="7.12" speedRelative="0.31" departed="0" arrived="31" entered="31" left="0" laneChangedFrom="0" laneChangedTo="0"/>
        <edge id="-283" sampledSeconds="520.38" traveltime="7.32" overlapTraveltime="7.59" density="1.61" laneDensity="1.61" occupancy="0.74" waitingTime="0.00" timeLoss="240.04" speed="12.45" speedRelative="0.53" departed="0" arrived="69" entered="69" left="0" laneChangedFrom="0" laneChangedTo="0"/>
        <edge id="-284" sampledSeconds="7723.25" traveltime="17.37" overlapTraveltime="18.31" density="22.95" laneDensity="7.65" occupancy="3.68" waitingTime="2815.00" timeLoss="5087.40" speed="5.38" speedRelative="0.34" departed="0" arrived="0" entered="422" left="421" laneChangedFrom="56" laneChangedTo="57"/>
        <edge id="-285" sampledSeconds="10769.74" traveltime="25.65" overlapTraveltime="26.56" density="45.55" laneDensity="11.39" occupancy="5.58" waitingTime="7259.00" timeLoss="9177.13" speed="2.66" speedRelative="0.15" departed="0" arrived="0" entered="408" left="402" laneChangedFrom="137" laneChangedTo="137"/>
        <edge id="-2851" sampledSeconds="3996.26" traveltime="9.48" overlapTraveltime="9.79" density="8.64" laneDensity="2.88" occupancy="1.35" waitingTime="1.00" timeLoss="916.18" speed="13.63" speedRelative="0.76" departed="0" arrived="0" entered="410" left="408" laneChangedFrom="197" laneChangedTo="197"/>
        <edge id="-286" sampledSeconds="13000.96" traveltime="10.21" overlapTraveltime="10.77" density="39.87" laneDensity="7.97" occupancy="3.75" waitingTime="1681.00" timeLoss="5644.01" speed="8.87" speedRelative="0.56" departed="0" arrived="0" entered="1209" left="1205" laneChangedFrom="376" laneChangedTo="376"/>
        <edge id="-287" sampledSeconds="3601.88" traveltime="20.91" overlapTraveltime="21.14" density="2.58" laneDensity="1.29" occupancy="0.63" waitingTime="0.00" timeLoss="698.63" speed="18.59" speedRelative="0.80" departed="0" arrived="170" entered="173" left="0" laneChangedFrom="16" laneChangedTo="16"/>
        <edge id="-288" sampledSeconds="19200.67" traveltime="22.91" overlapTraveltime="23.52" density="27.48" laneDensity="9.16" occupancy="4.45" waitingTime="4601.00" timeLoss="9998.14" speed="8.47" speedRelative="0.47" departed="0" arrived="0" entered="817" left="814" laneChangedFrom="435" laneChangedTo="435"/>
        <edge id="-289" sampledSeconds="3671.77" traveltime="17.12" overlapTraveltime="17.35" density="3.34" laneDensity="1.67" occupancy="0.81" waitingTime="0.00" timeLoss="830.22" speed="17.88" speedRelative="0.77" departed="0" arrived="212" entered="216" left="2" laneChangedFrom="11" laneChangedTo="11" teleported="2"/>
        <edge id="-290" sampledSeconds="3409.48" traveltime="6.09" overlapTraveltime="6.81" density="23.33" laneDensity="7.78" occupancy="3.33" waitingTime="189.00" timeLoss="2269.35" speed="6.69" speedRelative="0.33" departed="0" arrived="0" entered="523" left="520" laneChangedFrom="93" laneChangedTo="93" teleported="21"/>
        <edge id="-291" sampledSeconds="0.00" departed="0" arrived="0" entered="0" left="0" laneChangedFrom="0" laneChangedTo="0"/>
        <edge id="-292" sampledSeconds="33106.70" traveltime="47.64" overlapTraveltime="48.65" density="24.67" laneDensity="8.22" occupancy="4.08" waitingTime="12709.00" timeLoss="21955.14" speed="7.76" speedRelative="0.33" departed="693" arrived="0" entered="0" left="687" laneChangedFrom="617" laneChangedTo="617"/>
        <edge id="-293" sampledSeconds="5384.11" traveltime="8.19" overlapTraveltime="8.80" density="17.28" laneDensity="8.64" occupancy="3.98" waitingTime="123.00" timeLoss="2616.41" speed="10.41" speedRelative="0.51" departed="0" arrived="0" entered="617" left="616" laneChangedFrom="129" laneChangedTo="129" teleported="4"/>
        <edge id="-294" sampledSeconds="723.71" traveltime="22.43" overlapTraveltime="22.66" density="0.50" laneDensity="0.50" occupancy="0.24" waitingTime="0.00" timeLoss="148.75" speed="18.11" speedRelative="0.78" departed="0" arrived="32" entered="32" left="0" laneChangedFrom="0" laneChangedTo="0"/>
        <edge id="-295" sampledSeconds="874.08" traveltime="1.62" overlapTraveltime="1.93" density="10.79" laneDensity="5.39" occupancy="2.17" waitingTime="0.00" timeLoss="251.99" speed="14.25" speedRelative="0.70" departed="0" arrived="464" entered="465" left="1" laneChangedFrom="4" laneChangedTo="4" teleported="1"/>
        <edge id="-296" sampledSeconds="680.20" traveltime="8.63" overlapTraveltime="8.87" density="1.54" laneDensity="1.54" occupancy="0.72" waitingTime="0.00" timeLoss="258.87" speed="14.38" speedRelative="0.62" departed="0" arrived="77" entered="77" left="0" laneChangedFrom="0" laneChangedTo="0"/>
        <edge id="-297" sampledSeconds="7779.83" traveltime="15.84" overlapTraveltime="16.51" density="53.24" laneDensity="26.62" occupancy="12.77" waitingTime="4578.00" timeLoss="6688.89" speed="2.76" speedRelative="0.14" departed="0" arrived="0" entered="474" left="466" laneChangedFrom="72" laneChangedTo="72"/>
        <edge id="-298" sampledSeconds="4118.62" traveltime="7.86" overlapTraveltime="8.31" density="13.22" laneDensity="4.41" occupancy="2.06" waitingTime="377.00" timeLoss="1852.35" speed="11.02" speedRelative="0.54" departed="0" arrived="0" entered="498" left="492" laneChangedFrom="47" laneChangedTo="47"/>
        <edge id="-299" sampledSeconds="3288.67" traveltime="11.96" overlapTraveltime="12.18" density="3.69" laneDensity="3.69" occupancy="1.80" waitingTime="0.00" timeLoss="374.76" speed="20.71" speedRelative="0.89" departed="0" arrived="270" entered="272" left="0" laneChangedFrom="0" laneChangedTo="0"/>
        <edge id="-300" sampledSeconds="7280.73" traveltime="31.41" overlapTraveltime="32.50" density="22.33" laneDensity="5.58" occupancy="2.71" waitingTime="4664.00" timeLoss="5914.59" speed="2.94" speedRelative="0.19" departed="0" arrived="0" entered="224" left="224" laneChangedFrom="209" laneChangedTo="209"/>
        <edge id="-301" sampledSeconds="310.21" traveltime="7.33" overlapTraveltime="7.61" density="0.98" laneDensity="0.49" occupancy="0.22" waitingTime="0.00" timeLoss="151.58" speed="12.19" speedRelative="0.52" departed="0" arrived="41" entered="41" left="0" laneChangedFrom="0" laneChangedTo="0"/>
        <edge id="-302" sampledSeconds="5446.25" traveltime="4.23" overlapTraveltime="4.82" density="42.40" laneDensity="21.20" occupancy="9.34" waitingTime="58.00" timeLoss="2627.31" speed="8.44" speedRelative="0.54" departed="0" arrived="0" entered="1131" left="1129" laneChangedFrom="34" laneChangedTo="34"/>
        <edge id="-303" sampledSeconds="1099.98" traveltime="11.21" overlapTraveltime="11.45" density="1.75" laneDensity="1.75" occupancy="0.83" waitingTime="0.00" timeLoss="354.98" speed="15.71" speedRelative="0.67" departed="0" arrived="96" entered="97" left="0" laneChangedFrom="0" laneChangedTo="0"/>
        <edge id="-304" sampledSeconds="6622.16" traveltime="28.56" overlapTraveltime="28.90" density="4.57" laneDensity="2.29" occupancy="1.12" waitingTime="0.00" timeLoss="696.49" speed="14.10" speedRelative="0.90" departed="0" arrived="224" entered="233" left="0" laneChangedFrom="75" laneChangedTo="75"/>
        <edge id="-305" sampledSeconds="7339.53" traveltime="24.82" overlapTraveltime="25.08" density="4.98" laneDensity="2.49" occupancy="1.21" waitingTime="0.00" timeLoss="1269.57" speed="16.52" speedRelative="0.82" departed="0" arrived="293" entered="293" left="0" laneChangedFrom="43" laneChangedTo="43"/>
        <edge id="-306" sampledSeconds="1309.47" traveltime="4.99" overlapTraveltime="5.32" density="6.74" laneDensity="6.74" occupancy="3.00" waitingTime="0.00" timeLoss="685.38" speed="11.07" speedRelative="0.47" departed="0" arrived="249" entered="250" left="0" laneChangedFrom="0" laneChangedTo="0"/>
        <edge id="-307" sampledSeconds="7020.42" traveltime="6.26" overlapTraveltime="6.74" density="32.00" laneDensity="10.67" occupancy="4.77" waitingTime="52.00" timeLoss="2766.53" speed="9.79" speedRelative="0.62" departed="0" arrived="0" entered="1063" left="1061" laneChangedFrom="321" laneChangedTo="321" teleported="21"/>
        <edge id="-308" sampledSeconds="28546.41" traveltime="68.66" overlapTraveltime="69.60" density="19.37" laneDensity="6.46" occupancy="3.21" waitingTime="15052.00" timeLoss="20058.26" speed="5.95" speedRelative="0.29" departed="417" arrived="0" entered="0" left="407" laneChangedFrom="393" laneChangedTo="393"/>
        <edge id="-309" sampledSeconds="2379.32" traveltime="54.69" overlapTraveltime="56.08" density="1.63" laneDensity="0.82" occupancy="0.40" waitingTime="1162.00" timeLoss="1631.86" speed="7.32" speedRelative="0.31" departed="43" arrived="0" entered="0" left="42" laneChangedFrom="30" laneChangedTo="30"/>
        <edge id="-310" sampledSeconds="46037.84" traveltime="60.28" overlapTraveltime="61.09" density="24.11" laneDensity="6.03" occupancy="3.00" waitingTime="14929.00" timeLoss="28568.61" speed="8.76" speedRelative="0.38" departed="765" arrived="0" entered="0" left="754" laneChangedFrom="1885" laneChangedTo="1885"/>
        <edge id="-311" sampledSeconds="0.00" departed="0" arrived="0" entered="0" left="0" laneChangedFrom="0" laneChangedTo="0"/>
        <edge id="-312" sampledSeconds="3511.70" traveltime="7.65" overlapTraveltime="8.13" density="43.34" laneDensity="14.45" occupancy="6.87" waitingTime="817.00" timeLoss="2921.14" speed="3.38" speedRelative="0.17" departed="531" arrived="0" entered="0" left="531" laneChangedFrom="72" laneChangedTo="72"/>
        <edge id="-313" sampledSeconds="3023.36" traveltime="5.89" overlapTraveltime="6.42" density="17.76" laneDensity="5.92" occupancy="2.67" waitingTime="382.00" timeLoss="1460.33" speed="8.14" speedRelative="0.52" departed="0" arrived="0" entered="471" left="470" laneChangedFrom="21" laneChangedTo="21"/>
        <edge id="-314" sampledSeconds="1649.25" traveltime="2.55" overlapTraveltime="2.99" density="20.65" laneDensity="20.65" occupancy="8.21" waitingTime="0.00" timeLoss="998.11" speed="9.09" speedRelative="0.39" departed="0" arrived="576" entered="577" left="0" laneChangedFrom="0" laneChangedTo="0"/>
        <edge id="-315" sampledSeconds="2442.81" traveltime="18.50" overlapTraveltime="19.38" density="4.07" laneDensity="0.81" occupancy="0.39" waitingTime="566.00" timeLoss="1048.18" speed="8.86" speedRelative="0.56" departed="0" arrived="0" entered="127" left="126" laneChangedFrom="71" laneChangedTo="71"/>
        <edge id="-316" sampledSeconds="153.82" traveltime="4.80" overlapTraveltime="5.26" density="1.93" laneDensity="1.93" occupancy="0.90" waitingTime="0.00" timeLoss="112.95" speed="5.17" speedRelative="0.22" departed="36" arrived="0" entered="0" left="36" laneChangedFrom="0" laneChangedTo="0"/>
        <edge id="-317" sampledSeconds="4910.82" traveltime="128.30" overlapTraveltime="130.39" density="60.76" laneDensity="30.38" occupancy="15.13" waitingTime="4514.00" timeLoss="4860.31" speed="0.21" speedRelative="0.01" departed="49" arrived="0" entered="0" left="49" laneChangedFrom="34" laneChangedTo="34"/>
        <edge id="-318" sampledSeconds="3994.50" traveltime="38.50" overlapTraveltime="40.44" density="12.39" laneDensity="6.20" occupancy="3.07" waitingTime="2556.00" timeLoss="3581.87" speed="2.34" speedRelative="0.10" departed="107" arrived="0" entered="0" left="106" laneChangedFrom="10" laneChangedTo="10" teleported="1"/>
        <edge id="-319" sampledSeconds="7978.06" traveltime="49.66" overlapTraveltime="50.81" density="25.26" laneDensity="8.42" occupancy="4.17" waitingTime="5672.00" timeLoss="7329.53" speed="1.83" speedRelative="0.08" departed="167" arrived="0" entered="0" left="166" laneChangedFrom="254" laneChangedTo="254"/>
        <edge id="-320" sampledSeconds="232.13" traveltime="4.97" overlapTraveltime="5.40" density="2.64" laneDensity="2.64" occupancy="1.24" waitingTime="0.00" timeLoss="166.59" speed="5.44" speedRelative="0.23" departed="52" arrived="0" entered="0" left="52" laneChangedFrom="0" laneChangedTo="0"/>
        <edge id="-321" sampledSeconds="1264.80" traveltime="11.99" overlapTraveltime="12.67" density="9.85" laneDensity="1.97" occupancy="0.94" waitingTime="761.00" timeLoss="1004.78" speed="3.21" speedRelative="0.20" departed="0" arrived="0" entered="100" left="100" laneChangedFrom="24" laneChangedTo="24"/>
        <edge id="-322" sampledSeconds="3156.24" traveltime="4.24" overlapTraveltime="4.87" density="19.99" laneDensity="10.00" occupancy="4.51" waitingTime="44.00" timeLoss="1171.82" speed="10.03" speedRelative="0.64" departed="0" arrived="0" entered="649" left="647" laneChangedFrom="20" laneChangedTo="20"/>
        <edge id="-3221" sampledSeconds="6495.59" traveltime="9.64" overlapTraveltime="9.99" density="14.68" laneDensity="7.34" occupancy="3.47" waitingTime="0.00" timeLoss="1163.87" speed="12.81" speedRelative="0.81" departed="0" arrived="0" entered="652" left="649" laneChangedFrom="162" laneChangedTo="162"/>
        <edge id="-323" sampledSeconds="1207.92" traveltime="1.91" overlapTraveltime="2.24" density="13.75" laneDensity="13.75" occupancy="5.70" waitingTime="0.00" timeLoss="526.10" speed="13.11" speedRelative="0.56" departed="0" arrived="554" entered="555" left="0" laneChangedFrom="0" laneChangedTo="0"/>
        <edge id="-324" sampledSeconds="5734.30" traveltime="47.97" overlapTraveltime="49.06" density="12.99" laneDensity="6.49" occupancy="3.22" waitingTime="3809.00" timeLoss="5083.63" speed="2.60" speedRelative="0.11" departed="122" arrived="0" entered="0" left="121" laneChangedFrom="90" laneChangedTo="90"/>
        <edge id="-325" sampledSeconds="783.72" traveltime="35.43" overlapTraveltime="37.06" density="1.25" laneDensity="0.62" occupancy="0.31" waitingTime="395.00" timeLoss="616.80" speed="4.85" speedRelative="0.21" departed="22" arrived="0" entered="0" left="22" laneChangedFrom="2" laneChangedTo="2"/>
        <edge id="-326" sampledSeconds="13974.85" traveltime="41.25" overlapTraveltime="42.51" density="71.98" laneDensity="18.00" occupancy="8.88" waitingTime="9853.00" timeLoss="13100.70" speed="1.39" speedRelative="0.06" departed="363" arrived="0" entered="0" left="361" laneChangedFrom="434" laneChangedTo="434"/>
        <edge id="-327" sampledSeconds="5986.09" traveltime="14.47" overlapTraveltime="15.22" density="17.79" laneDensity="5.93" occupancy="2.82" waitingTime="1498.00" timeLoss="3495.83" speed="6.47" speedRelative="0.41" departed="0" arrived="0" entered="394" left="392" laneChangedFrom="122" laneChangedTo="122"/>
        <edge id="-328" sampledSeconds="6303.52" traveltime="20.31" overlapTraveltime="21.45" density="28.73" laneDensity="7.18" occupancy="3.45" waitingTime="3548.00" timeLoss="5072.56" speed="3.08" speedRelative="0.20" departed="0" arrived="0" entered="294" left="294" laneChangedFrom="91" laneChangedTo="91"/>
        <edge id="-329" sampledSeconds="1487.00" traveltime="1.42" overlapTraveltime="1.78" density="24.96" laneDensity="24.96" occupancy="9.50" waitingTime="0.00" timeLoss="704.91" speed="12.13" speedRelative="0.52" departed="0" arrived="878" entered="878" left="0" laneChangedFrom="0" laneChangedTo="0"/>
        <edge id="-330" sampledSeconds="298.60" traveltime="4.34" overlapTraveltime="4.93" density="5.01" laneDensity="5.01" occupancy="2.32" waitingTime="0.00" timeLoss="229.63" speed="4.37" speedRelative="0.19" departed="84" arrived="0" entered="0" left="84" laneChangedFrom="0" laneChangedTo="0"/>
        <edge id="-331" sampledSeconds="1804.56" traveltime="16.75" overlapTraveltime="17.06" density="2.03" laneDensity="2.03" occupancy="1.00" waitingTime="0.00" timeLoss="647.27" speed="14.79" speedRelative="0.63" departed="108" arrived="0" entered="0" left="108" laneChangedFrom="0" laneChangedTo="0"/>
    </interval>
</meandata>
